/*--------------------------------*- C++ -*----------------------------------*\
| =========                 |                                                 |
| \\      /  F ield         | OpenFOAM: The Open Source CFD Toolbox           |
|  \\    /   O peration     | Version:  2.4.0                                 |
|   \\  /    A nd           | Web:      www.OpenFOAM.org                      |
|    \\/     M anipulation  |                                                 |
\*---------------------------------------------------------------------------*/
FoamFile
{
    version     2.0;
    format      ascii;
    class       volVectorField;
    location    "0.2";
    object      U;
}
// * * * * * * * * * * * * * * * * * * * * * * * * * * * * * * * * * * * * * //

dimensions      [0 1 -1 0 0 0 0];

internalField   nonuniform List<vector> 
400
(
(1.87227548396e-09 -1.04083408559e-16 0)
(1.87227533824e-09 6.93889390391e-18 0)
(1.87227544579e-09 9.36750677027e-17 0)
(1.87227545273e-09 5.20417042793e-17 0)
(1.87227552212e-09 -7.6327832943e-17 0)
(1.87227551865e-09 -6.59194920871e-17 0)
(1.87227549783e-09 -3.46944695195e-17 0)
(1.87227556375e-09 5.20417042793e-17 0)
(1.87227552559e-09 -1.38777878078e-17 0)
(1.87227540069e-09 3.46944695195e-18 0)
(1.87227560192e-09 2.08166817117e-17 0)
(1.87227560886e-09 3.46944695195e-18 0)
(1.87227546661e-09 1.17961196366e-16 0)
(1.87227548049e-09 -1.73472347598e-17 0)
(1.87227558804e-09 -5.89805981832e-17 0)
(1.87227568865e-09 -1.17961196366e-16 0)
(1.8722755811e-09 -6.59194920871e-17 0)
(1.87227534865e-09 -1.52655665886e-16 0)
(1.87227523762e-09 -4.16333634234e-17 0)
(1.87227540069e-09 3.12250225676e-17 0)
(6.24015093417e-09 6.24500451352e-17 0)
(6.24015075029e-09 1.35308431126e-16 0)
(6.24015069478e-09 1.2490009027e-16 0)
(6.24015080233e-09 2.01227923213e-16 0)
(6.24015091336e-09 1.56125112838e-16 0)
(6.24015089948e-09 1.66533453694e-16 0)
(6.24015097234e-09 1.94289029309e-16 0)
(6.24015087519e-09 1.66533453694e-16 0)
(6.2401507607e-09 1.45716771982e-16 0)
(6.2401508856e-09 1.35308431126e-16 0)
(6.24015098968e-09 2.01227923213e-16 0)
(6.24015105907e-09 3.74700270811e-16 0)
(6.24015095499e-09 3.85108611667e-16 0)
(6.24015089601e-09 1.2490009027e-16 0)
(6.24015090989e-09 3.81639164715e-17 0)
(6.24015090295e-09 6.24500451352e-17 0)
(6.24015097581e-09 1.73472347598e-17 0)
(6.24015096193e-09 -1.35308431126e-16 0)
(6.24015089601e-09 1.28369537222e-16 0)
(6.24015090295e-09 1.11022302463e-16 0)
(4.58851673324e-09 2.98372437868e-16 0)
(4.58851671242e-09 2.98372437868e-16 0)
(4.58851677487e-09 3.33066907388e-16 0)
(4.58851679569e-09 4.57966997658e-16 0)
(4.58851683732e-09 3.50414142147e-16 0)
(4.58851677487e-09 3.60822483003e-16 0)
(4.58851674018e-09 3.92047505571e-16 0)
(4.58851677834e-09 3.81639164715e-16 0)
(4.58851680263e-09 3.50414142147e-16 0)
(4.58851686161e-09 4.57966997658e-16 0)
(4.58851690324e-09 4.6143644461e-16 0)
(4.58851700386e-09 5.20417042793e-16 0)
(4.58851687896e-09 4.33680868994e-16 0)
(4.58851677487e-09 2.01227923213e-16 0)
(4.58851686508e-09 1.83880688454e-16 0)
(4.58851694835e-09 1.35308431126e-16 0)
(4.58851699692e-09 1.73472347598e-16 0)
(4.58851701773e-09 1.97758476261e-16 0)
(4.58851686161e-09 2.08166817117e-16 0)
(4.5885166812e-09 2.53269627493e-16 0)
(-3.68966828757e-08 4.57966997658e-16 0)
(-3.68966828618e-08 3.74700270811e-16 0)
(-3.68966827993e-08 3.1918911958e-16 0)
(-3.68966827091e-08 3.0184188482e-16 0)
(-3.68966827022e-08 2.671474153e-16 0)
(-3.68966827959e-08 3.1918911958e-16 0)
(-3.68966827542e-08 3.64291929955e-16 0)
(-3.68966826952e-08 3.1918911958e-16 0)
(-3.68966827612e-08 2.77555756156e-16 0)
(-3.68966826987e-08 3.67761376907e-16 0)
(-3.68966826675e-08 4.12864187282e-16 0)
(-3.68966826779e-08 2.53269627493e-16 0)
(-3.68966828097e-08 1.49186218934e-16 0)
(-3.68966828444e-08 1.70002900646e-16 0)
(-3.6896682782e-08 1.56125112838e-16 0)
(-3.68966825148e-08 1.66533453694e-16 0)
(-3.68966825669e-08 5.55111512313e-17 0)
(-3.68966826432e-08 1.04083408559e-16 0)
(-3.68966826432e-08 1.97758476261e-16 0)
(-3.68966827473e-08 3.64291929955e-16 0)
(-1.70969708859e-07 2.98372437868e-16 0)
(-1.70969708935e-07 2.671474153e-16 0)
(-1.70969708894e-07 2.53269627493e-16 0)
(-1.70969708703e-07 2.32452945781e-16 0)
(-1.70969708727e-07 2.25514051877e-16 0)
(-1.70969708686e-07 2.63677968348e-16 0)
(-1.70969708765e-07 3.08780778724e-16 0)
(-1.70969708738e-07 1.35308431126e-16 0)
(-1.70969708748e-07 1.35308431126e-16 0)
(-1.70969708811e-07 1.94289029309e-16 0)
(-1.70969708776e-07 2.42861286637e-16 0)
(-1.70969708731e-07 2.74086309204e-16 0)
(-1.70969708783e-07 6.59194920871e-17 0)
(-1.70969708856e-07 1.14491749414e-16 0)
(-1.7096970879e-07 1.70002900646e-16 0)
(-1.70969708703e-07 1.97758476261e-16 0)
(-1.70969708637e-07 1.4224732503e-16 0)
(-1.70969708582e-07 1.66533453694e-16 0)
(-1.70969708505e-07 1.31838984174e-16 0)
(-1.70969708665e-07 3.85108611667e-16 0)
(-3.06691697875e-07 3.0184188482e-16 0)
(-3.06691697871e-07 2.46330733589e-16 0)
(-3.06691697895e-07 2.49800180541e-16 0)
(-3.06691697878e-07 1.38777878078e-16 0)
(-3.06691697888e-07 1.14491749414e-16 0)
(-3.0669169784e-07 2.08166817117e-16 0)
(-3.06691697975e-07 2.77555756156e-16 0)
(-3.06691697968e-07 3.12250225676e-16 0)
(-3.0669169785e-07 2.46330733589e-16 0)
(-3.06691697906e-07 1.07552855511e-16 0)
(-3.06691697878e-07 1.38777878078e-16 0)
(-3.06691697944e-07 2.60208521397e-16 0)
(-3.06691697989e-07 2.04697370165e-16 0)
(-3.06691698017e-07 8.67361737988e-17 0)
(-3.06691697979e-07 1.17961196366e-16 0)
(-3.06691697975e-07 2.35922392733e-16 0)
(-3.06691697885e-07 3.98986399475e-16 0)
(-3.06691697861e-07 2.94902990916e-16 0)
(-3.06691697781e-07 3.74700270811e-16 0)
(-3.06691697729e-07 3.60822483003e-16 0)
(2.6539561624e-07 3.92047505571e-16 0)
(2.65395616202e-07 4.68375338514e-16 0)
(2.65395616237e-07 3.29597460436e-16 0)
(2.65395616289e-07 1.7694179455e-16 0)
(2.65395616275e-07 2.01227923213e-16 0)
(2.65395616223e-07 2.25514051877e-16 0)
(2.65395616195e-07 3.46944695195e-16 0)
(2.65395616199e-07 3.98986399475e-16 0)
(2.65395616102e-07 4.16333634234e-16 0)
(2.65395616015e-07 3.43475248243e-16 0)
(2.65395616223e-07 2.81025203108e-16 0)
(2.65395616306e-07 3.67761376907e-16 0)
(2.65395616112e-07 4.05925293379e-16 0)
(2.65395616053e-07 3.67761376907e-16 0)
(2.6539561607e-07 2.77555756156e-16 0)
(2.65395616178e-07 3.43475248243e-16 0)
(2.65395616282e-07 4.85722573274e-16 0)
(2.65395616181e-07 4.4408920985e-16 0)
(2.65395616317e-07 4.6143644461e-16 0)
(2.65395616362e-07 3.78169717763e-16 0)
(3.29705025865e-06 4.47558656802e-16 0)
(3.29705025868e-06 5.10008701937e-16 0)
(3.29705025866e-06 4.16333634234e-16 0)
(3.29705025867e-06 3.33066907388e-16 0)
(3.29705025863e-06 3.26128013484e-16 0)
(3.29705025863e-06 2.94902990916e-16 0)
(3.29705025853e-06 3.1918911958e-16 0)
(3.29705025851e-06 2.91433543964e-16 0)
(3.29705025848e-06 4.68375338514e-16 0)
(3.29705025849e-06 4.71844785466e-16 0)
(3.2970502586e-06 4.71844785466e-16 0)
(3.29705025869e-06 4.64905891562e-16 0)
(3.29705025855e-06 4.16333634234e-16 0)
(3.29705025859e-06 5.72458747072e-16 0)
(3.29705025866e-06 5.75928194024e-16 0)
(3.29705025872e-06 4.99600361081e-16 0)
(3.29705025876e-06 5.44703171457e-16 0)
(3.2970502588e-06 4.75314232418e-16 0)
(3.29705025875e-06 4.30211422042e-16 0)
(3.2970502588e-06 3.1918911958e-16 0)
(9.84292345943e-06 4.40619762898e-16 0)
(9.84292345939e-06 5.51642065361e-16 0)
(9.84292345936e-06 5.20417042793e-16 0)
(9.84292345929e-06 3.67761376907e-16 0)
(9.84292345933e-06 4.12864187282e-16 0)
(9.84292345939e-06 4.12864187282e-16 0)
(9.84292345929e-06 4.54497550706e-16 0)
(9.84292345928e-06 3.98986399475e-16 0)
(9.84292345922e-06 5.23886489745e-16 0)
(9.84292345928e-06 5.13478148889e-16 0)
(9.84292345935e-06 7.38992200766e-16 0)
(9.8429234593e-06 5.62050406216e-16 0)
(9.84292345936e-06 6.38378239159e-16 0)
(9.84292345941e-06 7.2858385991e-16 0)
(9.8429234593e-06 6.80011602583e-16 0)
(9.84292345931e-06 5.34294830601e-16 0)
(9.84292345931e-06 4.4408920985e-16 0)
(9.84292345931e-06 4.6143644461e-16 0)
(9.84292345937e-06 4.12864187282e-16 0)
(9.84292345943e-06 4.2674197509e-16 0)
(1.20834005236e-05 4.71844785466e-16 0)
(1.20834005236e-05 4.82253126322e-16 0)
(1.20834005235e-05 4.40619762898e-16 0)
(1.20834005235e-05 5.10008701937e-16 0)
(1.20834005234e-05 5.55111512313e-16 0)
(1.20834005234e-05 5.82867087928e-16 0)
(1.20834005236e-05 5.75928194024e-16 0)
(1.20834005236e-05 5.16947595841e-16 0)
(1.20834005235e-05 4.4408920985e-16 0)
(1.20834005234e-05 6.45317133063e-16 0)
(1.20834005234e-05 6.62664367823e-16 0)
(1.20834005235e-05 6.76542155631e-16 0)
(1.20834005235e-05 7.32053306862e-16 0)
(1.20834005234e-05 6.00214322688e-16 0)
(1.20834005235e-05 6.76542155631e-16 0)
(1.20834005234e-05 6.24500451352e-16 0)
(1.20834005234e-05 6.00214322688e-16 0)
(1.20834005235e-05 6.17561557448e-16 0)
(1.20834005236e-05 5.37764277553e-16 0)
(1.20834005235e-05 5.65519853168e-16 0)
(-2.25469172092e-05 5.55111512313e-16 0)
(-2.25469172092e-05 5.27355936697e-16 0)
(-2.25469172092e-05 5.03069808033e-16 0)
(-2.25469172093e-05 4.7878367937e-16 0)
(-2.25469172093e-05 5.41233724505e-16 0)
(-2.25469172092e-05 6.69603261727e-16 0)
(-2.25469172092e-05 6.27969898304e-16 0)
(-2.25469172092e-05 6.34908792208e-16 0)
(-2.25469172093e-05 5.34294830601e-16 0)
(-2.25469172093e-05 5.37764277553e-16 0)
(-2.25469172092e-05 6.83481049535e-16 0)
(-2.25469172092e-05 7.00828284295e-16 0)
(-2.25469172093e-05 6.62664367823e-16 0)
(-2.25469172093e-05 7.25114412958e-16 0)
(-2.25469172092e-05 7.4593109467e-16 0)
(-2.25469172092e-05 8.01442245901e-16 0)
(-2.25469172093e-05 7.84095011142e-16 0)
(-2.25469172093e-05 7.49400541622e-16 0)
(-2.25469172091e-05 5.10008701937e-16 0)
(-2.25469172091e-05 5.72458747072e-16 0)
(-0.000157300983677 5.72458747072e-16 0)
(-0.000157300983677 5.41233724505e-16 0)
(-0.000157300983677 5.03069808033e-16 0)
(-0.000157300983677 4.68375338514e-16 0)
(-0.000157300983677 4.92661467177e-16 0)
(-0.000157300983677 5.79397640976e-16 0)
(-0.000157300983677 5.65519853168e-16 0)
(-0.000157300983677 6.48786580015e-16 0)
(-0.000157300983677 6.10622663544e-16 0)
(-0.000157300983677 6.14092110496e-16 0)
(-0.000157300983677 6.07153216592e-16 0)
(-0.000157300983677 6.83481049535e-16 0)
(-0.000157300983677 7.18175519054e-16 0)
(-0.000157300983677 8.01442245901e-16 0)
(-0.000157300983677 8.08381139805e-16 0)
(-0.000157300983677 8.32667268469e-16 0)
(-0.000157300983677 7.84095011142e-16 0)
(-0.000157300983677 7.4593109467e-16 0)
(-0.000157300983677 6.76542155631e-16 0)
(-0.000157300983677 3.88578058619e-16 0)
(-0.000426608310299 6.59194920871e-16 0)
(-0.000426608310299 4.7878367937e-16 0)
(-0.000426608310299 3.92047505571e-16 0)
(-0.000426608310299 4.05925293379e-16 0)
(-0.000426608310299 3.67761376907e-16 0)
(-0.000426608310299 4.09394740331e-16 0)
(-0.000426608310299 4.85722573274e-16 0)
(-0.000426608310299 4.30211422042e-16 0)
(-0.000426608310299 3.67761376907e-16 0)
(-0.000426608310299 5.23886489745e-16 0)
(-0.000426608310299 5.55111512313e-16 0)
(-0.000426608310299 5.79397640976e-16 0)
(-0.000426608310299 6.48786580015e-16 0)
(-0.000426608310299 7.18175519054e-16 0)
(-0.000426608310299 6.27969898304e-16 0)
(-0.000426608310299 6.34908792208e-16 0)
(-0.000426608310299 6.80011602583e-16 0)
(-0.000426608310299 5.44703171457e-16 0)
(-0.000426608310299 5.41233724505e-16 0)
(-0.000426608310299 3.81639164715e-16 0)
(-0.000630218744584 4.82253126322e-16 0)
(-0.000630218744584 3.60822483003e-16 0)
(-0.000630218744584 2.74086309204e-16 0)
(-0.000630218744584 2.81025203108e-16 0)
(-0.000630218744584 2.01227923213e-16 0)
(-0.000630218744584 3.33066907388e-16 0)
(-0.000630218744584 4.82253126322e-16 0)
(-0.000630218744584 2.28983498829e-16 0)
(-0.000630218744584 2.39391839685e-16 0)
(-0.000630218744584 3.3653635434e-16 0)
(-0.000630218744584 3.53883589099e-16 0)
(-0.000630218744584 3.95516952523e-16 0)
(-0.000630218744584 4.64905891562e-16 0)
(-0.000630218744584 4.82253126322e-16 0)
(-0.000630218744584 3.95516952523e-16 0)
(-0.000630218744584 4.6143644461e-16 0)
(-0.000630218744584 5.65519853168e-16 0)
(-0.000630218744584 4.4408920985e-16 0)
(-0.000630218744584 4.85722573274e-16 0)
(-0.000630218744584 5.30825383649e-16 0)
(3.6878685011e-05 2.15105711021e-16 0)
(3.68786850109e-05 1.7694179455e-16 0)
(3.6878685011e-05 2.01227923213e-16 0)
(3.68786850112e-05 2.49800180541e-16 0)
(3.68786850113e-05 2.81025203108e-16 0)
(3.68786850113e-05 3.85108611667e-16 0)
(3.68786850114e-05 3.98986399475e-16 0)
(3.68786850114e-05 2.46330733589e-16 0)
(3.68786850114e-05 2.04697370165e-16 0)
(3.68786850111e-05 2.18575157973e-16 0)
(3.68786850111e-05 1.70002900646e-16 0)
(3.68786850113e-05 1.70002900646e-16 0)
(3.68786850113e-05 3.1918911958e-16 0)
(3.68786850111e-05 3.05311331772e-16 0)
(3.6878685011e-05 2.91433543964e-16 0)
(3.6878685011e-05 4.82253126322e-16 0)
(3.6878685011e-05 4.4408920985e-16 0)
(3.68786850109e-05 4.68375338514e-16 0)
(3.6878685011e-05 2.98372437868e-16 0)
(3.68786850111e-05 2.94902990916e-16 0)
(0.00333235625872 2.77555756156e-17 0)
(0.00333235625872 8.32667268469e-17 0)
(0.00333235625872 2.49800180541e-16 0)
(0.00333235625872 2.46330733589e-16 0)
(0.00333235625872 2.70616862252e-16 0)
(0.00333235625872 3.57353036051e-16 0)
(0.00333235625872 3.92047505571e-16 0)
(0.00333235625872 2.56739074445e-16 0)
(0.00333235625872 1.63064006742e-16 0)
(0.00333235625872 9.02056207508e-17 0)
(0.00333235625872 1.28369537222e-16 0)
(0.00333235625872 1.83880688454e-16 0)
(0.00333235625872 1.4224732503e-16 0)
(0.00333235625872 2.70616862252e-16 0)
(0.00333235625872 1.83880688454e-16 0)
(0.00333235625872 2.98372437868e-16 0)
(0.00333235625872 4.37150315946e-16 0)
(0.00333235625872 3.98986399475e-16 0)
(0.00333235625872 2.87964097012e-16 0)
(0.00333235625872 3.3653635434e-16 0)
(0.0118694588867 7.6327832943e-17 0)
(0.0118694588867 9.02056207508e-17 0)
(0.0118694588867 2.35922392733e-16 0)
(0.0118694588867 2.11636264069e-16 0)
(0.0118694588867 2.77555756156e-16 0)
(0.0118694588867 3.92047505571e-16 0)
(0.0118694588867 4.51028103754e-16 0)
(0.0118694588867 4.16333634234e-16 0)
(0.0118694588867 1.38777878078e-16 0)
(0.0118694588867 1.63064006742e-16 0)
(0.0118694588867 7.97972798949e-17 0)
(0.0118694588867 2.11636264069e-16 0)
(0.0118694588867 1.00613961607e-16 0)
(0.0118694588867 2.28983498829e-16 0)
(0.0118694588867 7.97972798949e-17 0)
(0.0118694588867 9.02056207508e-17 0)
(0.0118694588867 1.4224732503e-16 0)
(0.0118694588867 2.77555756156e-16 0)
(0.0118694588867 2.11636264069e-16 0)
(0.0118694588867 2.15105711021e-16 0)
(0.0281941231652 1.38777878078e-17 0)
(0.0281941231652 5.89805981832e-17 0)
(0.0281941231652 1.00613961607e-16 0)
(0.0281941231652 7.6327832943e-17 0)
(0.0281941231652 1.31838984174e-16 0)
(0.0281941231652 3.60822483003e-16 0)
(0.0281941231652 3.43475248243e-16 0)
(0.0281941231652 4.6143644461e-16 0)
(0.0281941231652 1.97758476261e-16 0)
(0.0281941231652 1.5959455979e-16 0)
(0.0281941231652 9.02056207508e-17 0)
(0.0281941231652 9.02056207508e-17 0)
(0.0281941231652 7.6327832943e-17 0)
(0.0281941231652 9.71445146547e-17 0)
(0.0281941231652 5.55111512313e-17 0)
(0.0281941231652 7.97972798949e-17 0)
(0.0281941231652 -1.00613961607e-16 0)
(0.0281941231652 -9.71445146547e-17 0)
(0.0281941231652 -7.6327832943e-17 0)
(0.0281941231652 -5.20417042793e-17 0)
(0.0531827541908 2.08166817117e-17 0)
(0.0531827541908 1.38777878078e-16 0)
(0.0531827541908 1.52655665886e-16 0)
(0.0531827541908 1.11022302463e-16 0)
(0.0531827541908 -1.45716771982e-16 0)
(0.0531827541908 4.85722573274e-17 0)
(0.0531827541908 2.63677968348e-16 0)
(0.0531827541908 2.63677968348e-16 0)
(0.0531827541908 6.93889390391e-17 0)
(0.0531827541908 1.31838984174e-16 0)
(0.0531827541908 2.77555756156e-17 0)
(0.0531827541908 0 0)
(0.0531827541908 -1.31838984174e-16 0)
(0.0531827541908 0 0)
(0.0531827541908 -6.93889390391e-17 0)
(0.0531827541908 6.93889390391e-17 0)
(0.0531827541908 1.38777878078e-17 0)
(0.0531827541908 -1.52655665886e-16 0)
(0.0531827541908 -9.02056207508e-17 0)
(0.0531827541908 -1.52655665886e-16 0)
(0.0849175315965 0 0)
(0.0849175315965 8.32667268469e-17 0)
(0.0849175315965 1.2490009027e-16 0)
(0.0849175315965 4.85722573274e-17 0)
(0.0849175315965 -6.93889390391e-17 0)
(0.0849175315965 2.08166817117e-17 0)
(0.0849175315965 9.71445146547e-17 0)
(0.0849175315965 6.24500451352e-17 0)
(0.0849175315965 -1.11022302463e-16 0)
(0.0849175315965 -3.46944695195e-17 0)
(0.0849175315965 1.38777878078e-17 0)
(0.0849175315965 -6.24500451352e-17 0)
(0.0849175315965 -6.24500451352e-17 0)
(0.0849175315965 -1.04083408559e-16 0)
(0.0849175315965 -1.17961196366e-16 0)
(0.0849175315965 1.38777878078e-17 0)
(0.0849175315965 6.93889390391e-17 0)
(0.0849175315965 -4.85722573274e-17 0)
(0.0849175315965 -6.93889390391e-18 0)
(0.0849175315965 -1.31838984174e-16 0)
)
;

boundaryField
{
    top
    {
        type            fixedValue;
        value           uniform (0.1 0 0);
    }
    bottom
    {
        type            fixedValue;
        value           uniform (0 0 0);
    }
    left
    {
        type            cyclic;
    }
    right
    {
        type            cyclic;
    }
    frontAndBack
    {
        type            empty;
    }
}


// ************************************************************************* //
