/*--------------------------------*- C++ -*----------------------------------*\
| =========                 |                                                 |
| \\      /  F ield         | OpenFOAM: The Open Source CFD Toolbox           |
|  \\    /   O peration     | Version:  2.4.0                                 |
|   \\  /    A nd           | Web:      www.OpenFOAM.org                      |
|    \\/     M anipulation  |                                                 |
\*---------------------------------------------------------------------------*/
FoamFile
{
    version     2.0;
    format      ascii;
    class       volScalarField;
    location    "0.5";
    object      rho;
}
// * * * * * * * * * * * * * * * * * * * * * * * * * * * * * * * * * * * * * //

dimensions      [1 -3 0 0 0 0 0];

internalField   nonuniform List<scalar> 
400
(
-6.65903782621e+193
4.50512225162e+186
-1.26455903343e+184
6.02418537982e+178
-1.45833043331e+177
-2.65719746606e+170
5.32372814541e+168
4.3938705924e+163
5.03882415013e+163
-1.64022279992e+169
-6.94072127935e+171
2.45389883655e+177
8.62559850596e+179
-3.9881325466e+185
6.30529201635e+186
3.63842307033e+193
-8.21890084111e+194
-9.0526108259e+199
9.05112739122e+199
-3.72205484041e+193
-1.65916303665e+195
1.20123890771e+194
-1.04197204498e+186
-1.58659946914e+186
-1.60603239592e+179
6.29214827398e+177
1.0137806655e+170
1.18093389047e+168
-1.04096272485e+169
-3.37543667319e+171
1.88300536064e+177
1.05323039827e+180
-4.07971613032e+185
-8.48751006883e+187
9.56754131205e+193
-3.75112407273e+195
-3.15662332663e+201
4.73532716563e+201
2.01461861647e+201
-1.63334027532e+201
4.02787936594e+202
4.94188955209e+194
-2.50820963048e+193
-7.14495800612e+186
1.28787694729e+186
1.68845284313e+179
-2.27803977341e+177
-4.37261383924e+169
-1.66145417846e+171
8.97370334689e+176
4.18831938754e+179
-2.37983681472e+185
-1.48033371213e+188
8.02166566266e+193
1.11954565299e+195
-1.83793380972e+202
2.64458560564e+200
7.86148398903e+208
-7.86037203449e+208
-1.12068837099e+202
6.56601696167e+203
-4.38350321466e+202
1.40083458581e+194
8.01372622758e+192
2.36630473202e+185
-6.43355008823e+184
-9.74908157541e+178
1.40958273858e+176
3.60818585226e+176
1.15206919722e+178
-1.16658733091e+185
-5.87248679063e+186
5.00311425613e+193
2.66124450235e+195
-2.99383782764e+202
-1.17813486929e+203
2.60866219287e+210
-2.29374653046e+210
-2.92320682684e+210
2.60833598018e+210
-1.10862600167e+212
2.09033410722e+203
9.9121501013e+201
-1.15889558712e+195
-1.56886828014e+193
2.45182598165e+186
3.36911042147e+184
-7.36359093739e+177
1.0138154317e+177
-2.15473623802e+184
-3.26817472643e+185
1.0060874598e+193
1.17260814125e+194
-6.22744976237e+201
-6.20623247938e+202
5.40790701324e+210
1.62255821409e+211
-7.64992579905e+211
7.64955252333e+211
-1.6221938714e+211
-1.61984532354e+203
1.32952798319e+202
7.63697050775e+194
-2.56728353814e+194
-2.92022846797e+186
5.36970153174e+185
2.09442463792e+177
-1.59689197729e+177
-1.16227271527e+174
-7.6951632806e+176
8.82452329556e+183
1.78652430816e+185
-8.04899636537e+192
-1.11284541503e+194
7.62628338804e+201
5.73703591949e+202
-2.60913169761e+210
2.92347593676e+210
2.2945052631e+210
-2.60880580693e+210
4.94588776258e+202
-2.36705996149e+196
-6.35288254875e+195
2.27337479549e+188
1.50891198157e+187
-7.26206662924e+179
-4.38278427559e+178
3.45169528402e+171
1.51634465191e+170
1.23560454614e+177
4.65707902203e+177
-1.5158841875e+185
3.723090759e+185
3.57150847944e+193
-4.7443403198e+193
-9.05779547595e+201
1.11772103894e+202
7.87001307526e+208
-7.86890662118e+208
-2.74075230609e+200
-5.4087590759e+195
-1.15601829687e+196
7.0483293734e+188
4.5258090838e+187
-5.30423236789e+180
-1.49202974119e+179
2.25421618045e+172
6.50582566263e+170
-9.70465122508e+169
-7.80279082748e+170
5.8289109259e+177
2.14472410335e+179
-2.85387181148e+186
-1.29264013261e+187
1.03890513346e+192
1.06367693988e+194
1.63397240108e+201
-2.01407598159e+201
-4.73711606794e+201
3.15730112883e+201
-1.51519624129e+195
4.72584657823e+188
6.08947667357e+187
-9.34527949072e+180
-2.84328821527e+179
5.3421193887e+172
1.52931423127e+171
-7.87179472303e+164
-1.70649325256e+165
1.52563127938e+170
3.45275390401e+171
-3.74691757577e+178
-1.69428840024e+180
2.73263956408e+187
-6.38126319353e+187
-3.03587740188e+192
4.79695155544e+193
-9.06300496232e+199
9.06151802422e+199
7.9515184418e+194
5.04250202224e+187
2.40760601963e+187
-6.46056803244e+180
-3.58780233907e+179
8.08934861804e+172
2.68326895007e+171
-7.52863152361e+164
-2.18887766003e+163
3.51555717773e+164
-1.07506096938e+164
3.46806482712e+169
3.63998176122e+171
7.07778610799e+177
-5.55463726614e+179
-1.57281042036e+187
-3.63971682211e+185
-2.21547859179e+192
7.95881759535e+192
8.92837212944e+192
-5.47182103087e+192
1.46241854206e+186
-9.22190786753e+179
-1.25266424152e+179
4.56627907203e+172
2.16118199035e+171
-7.41378097953e+164
-2.46728829093e+163
1.37483252012e+157
-8.76215702144e+157
-1.20071880097e+163
3.82815611442e+163
1.85601780006e+170
-2.05262830562e+172
-4.59227808267e+177
4.43280737344e+179
6.33943869498e+183
-8.23410059544e+184
7.32176458219e+190
-6.94109240744e+190
-7.99672261159e+185
-1.12993520577e+179
-6.82639574772e+178
2.44636016981e+172
1.65897230658e+171
-6.93965111045e+164
-2.76260831191e+163
1.34581846125e+157
4.30272422486e+155
-1.39600423884e+156
1.42769404067e+157
-6.66648646379e+161
1.57799796372e+162
-2.49799355864e+170
8.8834139786e+171
4.33628071669e+178
7.89868303532e+176
2.79950780872e+183
-1.45200328419e+184
-1.81776874248e+184
1.15766389321e+184
-4.02980466247e+177
4.40644493023e+171
5.79785863494e+170
-3.38942276369e+164
-1.93169620338e+163
1.19033365093e+157
4.55931328626e+155
-1.38691174032e+149
9.34616701224e+149
1.63044670046e+155
-6.12304351355e+155
-1.84695573793e+162
2.49911073797e+163
1.82518220848e+169
-2.20181032201e+171
-1.81120461186e+175
5.61229019088e+176
-1.49665057755e+182
1.41235664581e+182
2.11699966706e+177
5.26896901545e+170
2.70025034166e+170
-1.55585599993e+164
-1.18838822797e+163
8.00268613013e+156
3.69730410453e+155
-3.08333525504e+149
-1.0791921106e+148
5.66745814965e+148
-2.70369785145e+149
8.41322260416e+154
1.43968372473e+155
-1.45030001585e+161
-3.72346517831e+163
-1.66430208717e+170
-3.93352730042e+168
-8.97869736746e+174
4.45523074731e+175
5.12536631636e+175
-3.35639112995e+175
1.56152949284e+169
-2.93375914521e+163
-3.70715385039e+162
3.39153352028e+156
2.09522394662e+155
-2.07554972133e+149
-8.70974994667e+147
5.30171758444e+141
-1.55834305256e+142
-2.85372413994e+147
-4.78280004927e+147
1.14791898711e+154
-4.12408640661e+155
2.03990099219e+161
1.42814135753e+163
8.49880711173e+166
-2.04844414664e+168
4.33662489079e+173
-4.09497700832e+173
-7.78415386953e+168
-2.97070350355e+162
-1.43125228223e+162
1.27754849379e+156
1.03718180823e+155
-1.11395598995e+149
-5.63828897641e+147
7.40542394473e+141
2.80524409022e+140
-1.97709997518e+141
9.00189366332e+141
-4.96431916702e+147
1.7339239696e+148
-3.27587939761e+153
2.0363116993e+155
8.54894709666e+161
2.41891995624e+160
3.32356620778e+166
-1.74767330597e+167
-1.91929584339e+167
1.29203620659e+167
-8.09191087449e+160
2.42299334891e+155
3.01883399606e+154
-4.28766609658e+148
-2.78761330233e+147
4.20133314296e+141
1.88298072385e+140
-1.10577931741e+135
3.47659856147e+135
4.07166752004e+139
-6.40133051567e+140
1.0979349585e+146
3.19805571633e+147
-4.13821179326e+153
-1.16502571902e+155
-4.95486527837e+158
1.05476256308e+160
-1.66047247541e+165
1.56779806629e+165
3.83261133418e+160
2.23522277185e+154
1.00692654542e+154
-1.41127965233e+148
-1.19038353141e+147
1.9536156072e+141
1.04489489336e+140
-2.15234291706e+134
-8.62729322162e+132
1.10610613985e+134
-5.24751346867e+134
-3.37847805342e+139
-3.39914289519e+140
5.8848724121e+145
-1.22860380778e+147
-5.82420281173e+153
-1.92075902934e+152
-1.68335559733e+158
9.25990019381e+158
9.69009171675e+158
-6.70010423752e+158
5.57108460981e+152
-2.64881087088e+147
-3.25326627119e+146
6.92821411013e+140
4.63437197857e+139
-1.07825080802e+134
-5.0463057819e+132
1.09277001534e+128
-2.07791000521e+129
-4.88111893896e+131
5.46538553682e+133
-1.19812345789e+139
-7.93371132856e+139
6.01885328127e+145
1.25003861655e+147
3.78685451855e+150
-7.19151218784e+151
8.57061533309e+156
-8.09229182554e+156
-2.49305820932e+152
-2.30827674414e+146
-9.53334902966e+145
2.0558998497e+140
1.70323103982e+139
-4.3881941708e+133
-2.33554795292e+132
7.2013978893e+126
2.90096178958e+125
5.18902487729e+127
2.36735915137e+128
1.56473598636e+132
8.39116468849e+132
-2.83562970167e+138
5.9611661745e+138
5.36473557211e+145
1.90123753996e+144
1.13291709509e+150
-6.56658909079e+150
-6.42231896083e+150
4.60381972149e+150
)
;

boundaryField
{
    top
    {
        type            bounceBack;
        value           uniform 1;
    }
    bottom
    {
        type            bounceBack;
        value           uniform 1;
    }
    left
    {
        type            cyclic;
    }
    right
    {
        type            cyclic;
    }
    frontAndBack
    {
        type            empty;
    }
}


// ************************************************************************* //
