/*--------------------------------*- C++ -*----------------------------------*\
| =========                 |                                                 |
| \\      /  F ield         | OpenFOAM: The Open Source CFD Toolbox           |
|  \\    /   O peration     | Version:  2.4.0                                 |
|   \\  /    A nd           | Web:      www.OpenFOAM.org                      |
|    \\/     M anipulation  |                                                 |
\*---------------------------------------------------------------------------*/
FoamFile
{
    version     2.0;
    format      ascii;
    class       volVectorField;
    location    "0.5";
    object      U;
}
// * * * * * * * * * * * * * * * * * * * * * * * * * * * * * * * * * * * * * //

dimensions      [0 1 -1 0 0 0 0];

internalField   nonuniform List<vector> 
400
(
(-0.191991781671 -1.15277573585 0)
(3.17666159979 -3.85510075079 0)
(2.50666054577 -3.99658445435 0)
(-1.68498484304 -1.66553701932 0)
(-2.4574618217 -1.04423014156 0)
(1.04971493329 2.1050713785 0)
(0.894676559643 1.18713478574 0)
(-0.0786110940432 -1.06918332922 0)
(-1.14349357437 -0.448301151643 0)
(-1.0725082904 -0.662693776494 0)
(-1.12968148099 -0.663445257996 0)
(-1.00894818912 -0.802712312312 0)
(-1.21870003401 -1.02977589938 0)
(-0.882028916494 -0.985779160715 0)
(0.175768573087 -0.788669139852 0)
(-0.572678379257 -1.10666251217 0)
(-0.732573206349 -1.13661665326 0)
(-1.06963960155 -1.16190429926 0)
(-1.06964888886 -1.16190421168 0)
(1.85364816829 -0.923829675875 0)
(-0.931880159158 1.31391459915 0)
(0.631038846108 0.021709918426 0)
(0.397187716437 0.130579870292 0)
(0.00495615101842 -1.04585659305 0)
(0.0625073519703 0.232729343873 0)
(0.0233560820189 -0.651043115419 0)
(-0.809560772904 -0.551017082617 0)
(3.24391890427 -1.61816552441 0)
(-1.13720480624 -0.483078184887 0)
(-1.20108626711 -0.39447915624 0)
(-1.11811775451 -0.576522036065 0)
(-1.15760123374 -0.367543069204 0)
(-1.08335004211 -0.713327452856 0)
(-2.49352806562 -1.04126824969 0)
(-1.02997332575 -0.935112664754 0)
(-0.985555454504 -1.01204352066 0)
(-1.24628294859 -1.17084654359 0)
(-0.904646047945 -1.30037056352 0)
(5.03997051286 -1.89778957305 0)
(0.708076455401 -0.934153183208 0)
(0.296281364937 1.94530911457 0)
(-0.13630245763 -0.820611959804 0)
(-0.87099841907 -0.735112424391 0)
(0.75494103718 4.03896379179 0)
(0.423514265306 1.64106693254 0)
(-0.452272812251 -0.316287024582 0)
(0.800380552449 -0.0261622505994 0)
(-5.02098029449 -22.2079635754 0)
(-1.19945495461 -0.0372158369773 0)
(-1.17839366306 -0.407238432265 0)
(-1.16681381495 -0.0518823164374 0)
(-1.18312164551 -0.489179723197 0)
(-1.12604513247 -0.0926816180064 0)
(-1.17212941185 -0.589603077388 0)
(-11.4209903564 -2.13290852456 0)
(-1.70020800091 -1.05242717436 0)
(-79.3788347804 -66.961271175 0)
(-5.10490330271 -1.12823944851 0)
(-5.10494212599 -1.12823989698 0)
(4.65422817476 0.446265299394 0)
(-0.711118914671 -0.102073449989 0)
(-0.45856291262 -0.639740430977 0)
(-0.324662335971 3.26255631641 0)
(-3.42984840546 -13.5774383767 0)
(17.9381044668 7.63254871773 0)
(1.07163476297 3.60922747511 0)
(1.1527057882 0.208060700268 0)
(1.08913717545 1.31714811275 0)
(-1.17576427581 -0.153204053982 0)
(-1.13694971322 -0.183715359072 0)
(-1.1764012805 -0.164834825345 0)
(-1.17839880416 -0.0769355187603 0)
(-1.18254982766 -0.176034454833 0)
(-1.12613621427 -0.201311561709 0)
(-1.14082816219 -0.159040799337 0)
(5.89860427446 1.05759998652 0)
(-4.14254547718 -0.998136745782 0)
(-3.19439717333 -1.65658554287 0)
(-4.7952828119 0.0545598068242 0)
(-2.88601753386 -0.258172515011 0)
(-0.853101887315 -0.0749869766954 0)
(2.40050725098 0.247693732164 0)
(1.14641340068 0.360580499758 0)
(1.11972903978 0.0449919275417 0)
(1.15942898589 0.0835302450397 0)
(1.16874459602 0.00867053874127 0)
(1.15775372078 0.0181749067926 0)
(1.1248234902 0.00160027268872 0)
(-1.8163108337 -0.00265210459306 0)
(-1.158003777 -0.000730520733233 0)
(-1.15971541134 -0.00722781778189 0)
(-1.15744479886 -0.00336758423355 0)
(-1.23119363886 -0.0365038167344 0)
(-1.16190895873 -0.0155511741169 0)
(-1.08265444882 -0.198241314642 0)
(-1.1282093002 -0.0742196656461 0)
(2.71929001269 0.331878486493 0)
(13543.7117395 1633.34746917 0)
(13543.2999785 1633.28739499 0)
(-2.71959051956 -0.331924903346 0)
(4.03543790128 0.643806848022 0)
(4.77663428085 -1.65188687641 0)
(2.34427553635 -0.896389047879 0)
(1.11924035615 -0.109465709217 0)
(1.16122632997 -0.614275621121 0)
(1.16834573381 0.0294257206151 0)
(1.27375850241 -2.02900541149 0)
(1.16336888884 0.0501153764236 0)
(4.10921077886 -46.1291557378 0)
(-0.900991746839 -1.0534957333 0)
(-0.907534779622 -2.10484633959 0)
(-1.76137303135 -2.06793397402 0)
(-1.02976658945 -1.07993935586 0)
(-1.0544153708 -0.920021548937 0)
(-1.04056019979 -0.850661152262 0)
(1.80425713663 0.241701088309 0)
(2.88317632122 0.258345357005 0)
(4.78971512615 -0.0547482807814 0)
(3.19247765198 1.65640594451 0)
(4.13946900536 0.998165396908 0)
(13.5506731112 6.2444543441 0)
(-3.26580519365 -1.64534683827 0)
(1.23499924928 0.242805616066 0)
(1.09255691394 0.378203313846 0)
(1.15437189736 0.0790657738303 0)
(1.20349634691 0.0678278026806 0)
(1.16237948716 0.041985670831 0)
(1.17523244037 0.00619090040261 0)
(1.49711831139 -0.168257772009 0)
(-1.03489571857 -0.113398377312 0)
(-1.28527597897 -1.69500786666 0)
(-2.12012840523 -0.776065897193 0)
(-1.10934869362 0.0170719284298 0)
(-1.59480638062 -0.554061025518 0)
(-4.45385123491 -1.2223749984 0)
(-1.53944958106 -0.0421741933652 0)
(-4.65994643827 -0.446692848936 0)
(5.10062446319 1.12817036075 0)
(5.10066085251 1.12816991351 0)
(76.5813523389 64.555480176 0)
(-5.97829626673 -3.24132532714 0)
(1.43973987835 0.885989381751 0)
(1.84883616735 0.878935159588 0)
(1.16114981469 0.430576358863 0)
(1.12960086781 0.266909364494 0)
(1.18276709578 0.309311034717 0)
(1.19455834952 0.165860690199 0)
(1.18236992189 0.252328134274 0)
(-1.18189863908 -0.113175288313 0)
(-0.731662329145 3.02118412515 0)
(-2.89852360357 -0.78468381627 0)
(-1.02039146662 -1.45862635432 0)
(-1.03989511755 -1.43827043082 0)
(3.86739305899 8.10492235936 0)
(55.9586509942 128.069368559 0)
(-0.916374605079 -1.64108524004 0)
(-0.706902308591 0.934090954838 0)
(-5.03360065702 1.89869947853 0)
(0.903748337916 1.3000272209 0)
(1.24513050469 1.17070519274 0)
(1.15914974341 1.12105050646 0)
(1.78945515234 1.04327403034 0)
(1.02747546381 0.906106220021 0)
(1.13141903624 0.701456168304 0)
(1.12591735368 0.66184727351 0)
(1.17591611656 0.507201334138 0)
(1.1563092217 0.498904327745 0)
(-0.00121621696212 0.116355762999 0)
(3.29221967211 0.720169098238 0)
(28.5218628946 5.81882387302 0)
(-0.680610117062 0.478467219397 0)
(-0.784022757244 0.415502923628 0)
(-0.340351535336 -0.584609498604 0)
(-0.360257868391 -0.370129835926 0)
(-1.50149955432 -3.43265263443 0)
(-0.743566907402 1.1399045521 0)
(-1.6269824712 0.808736026546 0)
(1.068694042 1.16191556804 0)
(1.06870329829 1.16191597221 0)
(0.727506293852 1.12728125013 0)
(1.20757304716 0.911257610087 0)
(0.580777809919 1.12157914455 0)
(0.983287605056 0.980289412287 0)
(0.946396470928 0.94750218991 0)
(1.05573208907 0.82099428228 0)
(1.06220780229 0.732320079307 0)
(1.13242283293 0.632070167163 0)
(1.11312726399 0.580484620301 0)
(1.1963582075 0.331166159037 0)
(-9.3037537019 -5.20310162782 0)
(-1.11203336299 3.74916881882 0)
(0.19778896938 -0.0512439560693 0)
(-2.45755115652 -0.773075496454 0)
(-2.13502609959 -3.3967625781 0)
(0.267606879113 1.12792584658 0)
(-0.380211360619 1.02756588671 0)
(-0.427319670907 0.810783546316 0)
(-1.05193360104 1.02221912506 0)
(0.220953539094 1.13216100351 0)
(0.318962078057 1.14380929571 0)
(0.0873300137848 1.12182378749 0)
(0.394688593607 1.12467734939 0)
(0.591084563966 1.0524108941 0)
(0.870149856035 0.961885870211 0)
(0.916070321096 0.896300999517 0)
(1.04239511737 0.805773465206 0)
(1.06467790903 0.734865991252 0)
(-0.427666461432 0.0527534102883 0)
(0.617796257029 0.0313700941927 0)
(1.44980782043 1.10395164271 0)
(-1.72899249054 0.598465170234 0)
(-1.51835549166 -0.431502725729 0)
(-0.682984109974 -0.192823567441 0)
(-3.69081048655 -2.79125503866 0)
(0.277356338031 1.18259830306 0)
(-0.601497655858 1.00124405975 0)
(0.165779672939 1.96140211138 0)
(0.0621895995432 1.12255435901 0)
(0.0701409872813 1.11919231475 0)
(0.0501406294656 1.12243151527 0)
(0.1720814295 1.24085608157 0)
(0.184270931293 1.1662707796 0)
(0.39465093267 1.18663556653 0)
(0.545891017231 1.11799525611 0)
(0.749465287716 1.05589514412 0)
(0.841986345135 0.978854909987 0)
(0.953724426089 0.907265281572 0)
(0.981302302871 0.829454545335 0)
(-1.88477020122 1.92609641035 0)
(1.26856484862 1.10471436215 0)
(-0.665546447368 2.79363839727 0)
(-1.16479081976 12.0281187607 0)
(0.47434870987 0.0331474662746 0)
(0.570986498824 1.05496176289 0)
(0.0566669645924 1.16204204029 0)
(-0.40077781781 1.26862398409 0)
(-0.0578314472816 1.2514230707 0)
(-0.231847877649 1.1879467598 0)
(0.0680810874604 1.1565775942 0)
(0.0811432126032 1.16059027849 0)
(0.0198478912374 1.16318246175 0)
(0.179036820442 1.21423786515 0)
(0.519182685702 1.18797944206 0)
(0.615076014424 1.17632457754 0)
(0.734816421416 1.07710500595 0)
(0.830704840809 1.02466479422 0)
(0.885266537654 0.933104145959 0)
(3.91536233798 0.681487724238 0)
(-2.66728537166 0.147071631443 0)
(0.0496958007376 1.08002799661 0)
(-1.15521016439 1.30027019313 0)
(-1.50488657293 0.0314235336958 0)
(2.76496803017 1.19661984255 0)
(7.47765759749 -0.0840412684348 0)
(0.0442567921606 1.1994105944 0)
(-0.516158943854 1.2380203384 0)
(-0.0391997270575 1.12782794787 0)
(0.00967049874445 1.16271635537 0)
(0.0109075254699 1.16320529921 0)
(0.0356831001488 1.15711991811 0)
(0.0285878439319 1.16259234979 0)
(0.0812140433734 1.16335203234 0)
(0.230607160324 1.18191179697 0)
(0.432275355268 1.12674468089 0)
(0.578904321385 1.1190421156 0)
(0.701595263298 1.04292301267 0)
(0.802795331036 1.00720950961 0)
(0.860263889585 0.931071920551 0)
(-0.336935117316 1.11907595936 0)
(0.391322031371 1.1029882566 0)
(-0.951053728822 0.689197885952 0)
(-18.3757223335 -20.2775829963 0)
(28.3225994911 1.78191001279 0)
(0.350200790051 1.11430881452 0)
(0.0128761294225 1.15748162436 0)
(-0.364491127705 1.19043222595 0)
(0.0201398098289 1.14201093107 0)
(-0.0761252991919 1.15791235549 0)
(0.0492072616209 1.15542879054 0)
(0.0262945953936 1.15900133828 0)
(0.00958674065471 1.15773533428 0)
(0.100978617039 1.18596733354 0)
(0.391056793829 1.18905593467 0)
(0.42776145847 1.18395545094 0)
(0.578391105588 1.11728860812 0)
(0.656304190566 1.09889185867 0)
(0.746111227363 1.02095753009 0)
(2.23611527364 0.804336331694 0)
(1.36837075273 2.4018103325 0)
(-1.05800315382 0.229415090724 0)
(-58.3108959136 22.691496709 0)
(-9.46207896328 -2.34671150289 0)
(0.718736487849 1.11339390505 0)
(-1.79327827508 1.71850302798 0)
(0.00779804146131 1.18310415377 0)
(-0.370877880572 1.19657223853 0)
(-0.082297963811 1.16411838637 0)
(0.00205592402139 1.15734451892 0)
(0.00231724199501 1.15728440619 0)
(0.0389816913675 1.15436562149 0)
(0.0010010336992 1.17169118036 0)
(0.0570561849922 1.16367554657 0)
(0.184839333922 1.18482254731 0)
(0.364753844569 1.14640629452 0)
(0.464717528781 1.15216588145 0)
(0.595166028755 1.09039631466 0)
(0.676243839465 1.07540106175 0)
(0.753667829296 1.00601709319 0)
(-0.0448019050913 1.17922345084 0)
(0.182868587901 1.16996864769 0)
(-1.87822616321 0.806624460459 0)
(-0.770419383797 1.29634972112 0)
(-4.60707335047 0.658040887909 0)
(0.446372920219 1.076227411 0)
(0.00339840251118 1.1580246802 0)
(-0.390459059389 1.1858462512 0)
(0.0389769357408 1.1542073288 0)
(-0.0534626059532 1.16056815647 0)
(0.0560800305905 1.15658019666 0)
(0.0141457293259 1.15920842487 0)
(0.00734582692043 1.15843006617 0)
(0.0768691385731 1.18433620969 0)
(0.318627067949 1.18736044026 0)
(0.339892900729 1.18651191342 0)
(0.481904001176 1.13883205032 0)
(0.539919271816 1.13389150033 0)
(0.641102463453 1.07036439852 0)
(-3.03999538944 1.06766298517 0)
(0.362510439237 1.07364814214 0)
(1.38528686467 1.47975285938 0)
(-0.507531468764 1.20527756189 0)
(3.26841024699 -1.88991590755 0)
(0.645406326426 1.31052105011 0)
(-1.13426575909 1.30435232139 0)
(0.000838120564073 1.17883659921 0)
(-0.303384790572 1.19689086662 0)
(-0.0898683956111 1.16171218813 0)
(0.000445913501774 1.15801622904 0)
(0.000502071333733 1.15802432124 0)
(0.0427592304366 1.15442834322 0)
(-0.00399186055872 1.16884033987 0)
(0.0508719703593 1.16355070581 0)
(0.169656979907 1.18450959174 0)
(0.319135448548 1.15522848912 0)
(0.394680449076 1.16454313581 0)
(0.516508286158 1.11659378232 0)
(0.578944313953 1.11220269116 0)
(0.664522973023 1.05362937309 0)
(0.0559313688159 1.00965149151 0)
(0.126503748429 1.10878342959 0)
(-0.632124681761 1.0749577812 0)
(-0.0701857026155 1.17550036655 0)
(-2.39016022852 0.826001465922 0)
(0.788851199211 1.00989774215 0)
(0.00136469654567 1.15793611651 0)
(-0.357102941928 1.17983974433 0)
(0.0438956197366 1.15249357196 0)
(-0.051418394183 1.15982051397 0)
(0.0621843151678 1.15672090394 0)
(0.0114480112503 1.15918559591 0)
(0.00683657010295 1.15834559364 0)
(0.0672548514834 1.18043794073 0)
(0.275021397868 1.18429685265 0)
(0.293047063407 1.18467919423 0)
(0.417821012436 1.14958641928 0)
(0.463847066533 1.14989452518 0)
(0.563029553 1.09951996396 0)
(-0.192286890962 0.937192693485 0)
(0.207923314689 0.647729269254 0)
(10.7136108543 1.65921061101 0)
(-0.182050371539 1.18506858499 0)
(-0.437558803124 1.09540905889 0)
(0.547117963676 1.53341098451 0)
(-0.787882109989 1.25150549379 0)
(-0.000508293796661 1.17494354856 0)
(-0.260211717759 1.19175935146 0)
(-0.0928035411484 1.16243072918 0)
(9.72114038242e-05 1.15793140683 0)
(0.000109145688044 1.15793105361 0)
(0.0462982696283 1.15391373397 0)
(-0.00450354166299 1.13804560882 0)
(0.0430539626154 1.16135725512 0)
(0.134889589768 1.14937454359 0)
(0.256625292244 1.15792251642 0)
(0.300229244249 1.14006102821 0)
(0.415405072533 1.1368671594 0)
(0.445747768524 1.11435894037 0)
(0.545131187639 1.09823039592 0)
(-0.526062996244 1.12202229142 0)
(0.563198945343 1.14550961478 0)
(-0.278647019933 1.14423876233 0)
(-0.138440702989 0.873542089738 0)
(-0.516183650764 1.10402707873 0)
(1.74027941851 1.07370429523 0)
(0.000842697380672 1.15794076558 0)
(-0.30046114536 1.19304354578 0)
(0.0400683458287 1.15465927412 0)
(-0.0382176640736 1.14865052392 0)
(0.051921661713 1.16734705022 0)
(0.00954732260167 1.15870973995 0)
)
;

boundaryField
{
    top
    {
        type            fixedValue;
        value           uniform (0.1 0 0);
    }
    bottom
    {
        type            fixedValue;
        value           uniform (0 0 0);
    }
    left
    {
        type            cyclic;
    }
    right
    {
        type            cyclic;
    }
    frontAndBack
    {
        type            empty;
    }
}


// ************************************************************************* //
