/*--------------------------------*- C++ -*----------------------------------*\
| =========                 |                                                 |
| \\      /  F ield         | OpenFOAM: The Open Source CFD Toolbox           |
|  \\    /   O peration     | Version:  2.4.0                                 |
|   \\  /    A nd           | Web:      www.OpenFOAM.org                      |
|    \\/     M anipulation  |                                                 |
\*---------------------------------------------------------------------------*/
FoamFile
{
    version     2.0;
    format      ascii;
    class       volScalarField;
    location    "1000";
    object      rho;
}
// * * * * * * * * * * * * * * * * * * * * * * * * * * * * * * * * * * * * * //

dimensions      [1 -3 0 0 0 0 0];

internalField   nonuniform List<scalar> 
2500
(
1.00001762779
1.00001819685
1.00001822549
1.00001814202
1.00001794054
1.00001767103
1.00001735607
1.00001701332
1.00001665255
1.0000162797
1.00001589837
1.00001551084
1.00001511868
1.000014723
1.0000143246
1.00001392409
1.00001352195
1.00001311853
1.00001271412
1.00001230894
1.00001190317
1.00001149693
1.00001109035
1.00001068352
1.0000102765
1.00000986938
1.00000946221
1.00000905506
1.00000864799
1.00000824109
1.00000783445
1.00000742819
1.00000702246
1.00000661746
1.00000621343
1.0000058107
1.0000054097
1.000005011
1.00000461534
1.00000422378
1.00000383781
1.00000345965
1.00000309281
1.00000274327
1.00000242122
1.00000214577
1.00000194482
1.0000018792
1.00000197704
1.00000266793
1.00001810111
1.00001834886
1.00001821048
1.00001803442
1.00001779356
1.00001751688
1.00001720995
1.00001688106
1.00001653536
1.00001617692
1.00001580866
1.00001543279
1.00001505094
1.00001466436
1.00001427401
1.00001388065
1.00001348487
1.00001308715
1.00001268788
1.00001228736
1.00001188587
1.00001148361
1.00001108078
1.00001067754
1.00001027403
1.00000987039
1.00000946676
1.00000906327
1.00000866006
1.0000082573
1.00000785516
1.00000745387
1.00000705368
1.00000665491
1.00000625794
1.00000586325
1.00000547148
1.00000508339
1.00000470002
1.0000043227
1.00000395323
1.00000359402
1.00000324838
1.00000292099
1.00000261805
1.00000234933
1.00000212369
1.00000197255
1.00000188302
1.00000217609
1.00001853271
1.00001852897
1.00001830897
1.00001808229
1.00001781306
1.00001751981
1.00001720398
1.00001687063
1.00001652304
1.00001616415
1.00001579623
1.0000154211
1.0000150402
1.00001465464
1.00001426533
1.00001387298
1.00001347818
1.00001308138
1.00001268298
1.00001228329
1.00001188257
1.00001148106
1.00001107895
1.0000106764
1.00001027358
1.00000987063
1.00000946769
1.00000906492
1.00000866246
1.00000826048
1.00000785919
1.0000074588
1.00000705958
1.00000666185
1.00000626601
1.00000587254
1.00000548204
1.00000509528
1.00000471322
1.00000433709
1.00000396848
1.00000360943
1.00000326256
1.00000293131
1.00000261974
1.00000233387
1.00000207721
1.00000186872
1.00000168197
1.00000170001
1.00001885661
1.0000186931
1.00001841262
1.00001814074
1.00001784362
1.00001753181
1.00001720448
1.00001686429
1.00001651294
1.00001615224
1.00001578373
1.00001540876
1.00001502844
1.00001464372
1.00001425538
1.00001386405
1.00001347027
1.0000130745
1.00001267708
1.00001227835
1.00001187856
1.00001147794
1.0000110767
1.00001067501
1.00001027303
1.00000987093
1.00000946886
1.00000906697
1.00000866542
1.0000082644
1.00000786411
1.00000746478
1.00000706668
1.00000667013
1.00000627552
1.00000588331
1.00000549408
1.00000510852
1.00000472748
1.000004352
1.00000398336
1.00000362311
1.00000327306
1.00000293538
1.0000026123
1.00000230696
1.00000201974
1.00000176056
1.00000150193
1.00000134552
1.00001911113
1.00001884414
1.00001852194
1.00001821403
1.00001789304
1.00001756365
1.00001722395
1.0000168751
1.00001651784
1.00001615321
1.00001578217
1.00001540563
1.00001502444
1.00001463931
1.00001425087
1.00001385967
1.00001346616
1.00001307075
1.00001267376
1.00001227549
1.00001187619
1.00001147608
1.00001107535
1.00001067417
1.00001027272
1.00000987115
1.00000946961
1.00000906826
1.00000866726
1.00000826679
1.00000786705
1.00000746826
1.00000707068
1.00000667461
1.0000062804
1.00000588848
1.00000549933
1.00000511355
1.00000473183
1.00000435498
1.00000398396
1.00000361983
1.00000326375
1.00000291699
1.00000258061
1.00000225599
1.000001942
1.00000164239
1.00000133418
1.00000106713
1.0000193118
1.0000189766
1.00001862504
1.00001828843
1.00001794703
1.00001760172
1.00001725019
1.00001689254
1.00001652886
1.00001615961
1.00001578531
1.00001540652
1.00001502382
1.00001463773
1.00001424872
1.00001385724
1.00001346365
1.00001306831
1.0000126715
1.00001227348
1.00001187448
1.00001147471
1.00001107434
1.00001067355
1.0000102725
1.00000987132
1.00000947019
1.00000906924
1.00000866864
1.00000826855
1.00000786917
1.0000074707
1.00000707338
1.00000667747
1.00000628329
1.0000058912
1.00000550161
1.000005115
1.00000473188
1.00000435287
1.00000397861
1.00000360978
1.00000324701
1.00000289091
1.00000254176
1.00000219973
1.00000186297
1.00000153141
1.00000118827
1.00000084964
1.00001947402
1.00001909268
1.0000187206
1.00001836178
1.00001800348
1.00001764426
1.00001728185
1.00001691569
1.00001654546
1.00001617122
1.00001579316
1.00001541159
1.00001502685
1.0000146393
1.00001424926
1.00001385709
1.00001346306
1.00001306747
1.00001267055
1.00001227253
1.00001187361
1.00001147397
1.00001107378
1.0000106732
1.00001027237
1.00000987143
1.00000947053
1.00000906981
1.00000866941
1.0000082695
1.00000787024
1.00000747182
1.00000707445
1.00000667836
1.00000628382
1.00000589111
1.00000550056
1.00000511254
1.00000472742
1.0000043456
1.00000396749
1.00000359346
1.00000322377
1.00000285856
1.00000249761
1.00000214037
1.00000178482
1.0000014287
1.00000106122
1.00000067544
1.00001960769
1.00001919408
1.00001880745
1.00001843153
1.00001805941
1.00001768827
1.00001731613
1.00001694207
1.00001656552
1.00001618627
1.00001580429
1.00001541968
1.0000150326
1.00001464326
1.0000142519
1.00001385874
1.00001346401
1.00001306792
1.00001267067
1.00001227245
1.00001187343
1.00001147376
1.00001107359
1.00001067307
1.00001027232
1.00000987147
1.00000947066
1.00000907001
1.00000866966
1.00000826974
1.00000787041
1.00000747183
1.00000707417
1.00000667764
1.00000628244
1.00000588879
1.00000549695
1.00000510715
1.00000471967
1.00000433473
1.00000395256
1.00000357327
1.00000319688
1.00000282321
1.00000245176
1.00000208156
1.00000171075
1.00000133591
1.00000095127
1.00000053358
1.00001971982
1.0000192829
1.00001888585
1.00001849676
1.00001811346
1.00001773224
1.00001735158
1.00001697034
1.00001658787
1.00001620377
1.00001581787
1.00001543011
1.00001504052
1.00001464921
1.0000142563
1.00001386195
1.0000134663
1.00001306952
1.00001267176
1.00001227317
1.00001187388
1.00001147403
1.00001107374
1.00001067314
1.00001027234
1.00000987145
1.00000947059
1.00000906987
1.00000866941
1.00000826933
1.00000786976
1.00000747083
1.0000070727
1.0000066755
1.00000627941
1.00000588458
1.00000549119
1.00000509941
1.00000470936
1.00000432118
1.00000393491
1.00000355053
1.00000316787
1.00000278656
1.00000240595
1.00000202487
1.00000164183
1.00000125276
1.00000085595
1.00000041607
1.00001981525
1.00001936095
1.00001895629
1.00001855702
1.00001816467
1.00001777503
1.00001738698
1.00001699934
1.00001661144
1.00001622277
1.00001583307
1.00001544218
1.00001505004
1.00001465666
1.00001426208
1.00001386639
1.00001346968
1.00001307207
1.00001267365
1.00001227454
1.00001187486
1.0000114747
1.00001107417
1.00001067337
1.0000102724
1.00000987135
1.00000947033
1.00000906942
1.00000866873
1.00000826836
1.00000786841
1.00000746899
1.00000707021
1.0000066722
1.00000627505
1.00000587889
1.00000548382
1.00000508992
1.00000469725
1.00000430583
1.00000391562
1.00000352645
1.00000313807
1.00000274998
1.00000236149
1.00000197141
1.0000015786
1.00000117871
1.00000077313
1.00000031739
1.00001989739
1.00001942975
1.00001901946
1.00001861223
1.00001821259
1.00001781591
1.00001742152
1.00001702824
1.00001663543
1.00001624254
1.00001584925
1.00001545534
1.00001506067
1.00001466519
1.00001426888
1.00001387177
1.00001347391
1.00001307536
1.00001267618
1.00001227646
1.00001187628
1.00001147571
1.00001107483
1.00001067374
1.0000102725
1.00000987119
1.0000094699
1.00000906871
1.00000866768
1.00000826691
1.00000786647
1.00000746644
1.00000706692
1.00000666797
1.00000626966
1.00000587207
1.00000547525
1.00000507921
1.00000468395
1.00000428941
1.00000389548
1.00000350191
1.00000310839
1.00000271438
1.00000231921
1.00000192171
1.00000152113
1.00000111295
1.00000070098
1.00000023359
1.0000199687
1.00001949054
1.000019076
1.0000186625
1.00001825695
1.00001785442
1.00001745462
1.00001705642
1.00001665921
1.00001626248
1.00001586586
1.00001546908
1.00001507197
1.00001467443
1.00001427639
1.00001387783
1.00001347877
1.00001307921
1.0000126792
1.00001227879
1.00001187803
1.00001147697
1.00001107568
1.00001067421
1.00001027262
1.00000987098
1.00000946934
1.00000906777
1.00000866633
1.00000826508
1.00000786406
1.00000746336
1.000007063
1.00000666305
1.00000626353
1.00000586448
1.00000546589
1.00000506775
1.00000467
1.00000427252
1.00000387514
1.0000034776
1.00000307953
1.0000026804
1.0000022796
1.00000187601
1.00000146924
1.00000105467
1.00000063799
1.00000016183
1.00002003095
1.00001954433
1.00001912655
1.00001870805
1.0000182977
1.0000178903
1.00001748589
1.00001708341
1.00001668233
1.00001628213
1.00001588244
1.00001548299
1.00001508358
1.00001468405
1.00001428432
1.00001388432
1.00001348404
1.00001308345
1.00001268257
1.00001228143
1.00001188003
1.00001147843
1.00001107666
1.00001067475
1.00001027276
1.00000987072
1.00000946868
1.00000906667
1.00000866475
1.00000826296
1.00000786132
1.00000745987
1.00000705864
1.00000665766
1.00000625691
1.00000585641
1.0000054561
1.00000505595
1.00000465584
1.00000425563
1.00000385512
1.00000345403
1.00000305198
1.00000264847
1.00000224294
1.00000183437
1.00000142266
1.00000100313
1.00000058291
1.00000010001
1.00002008548
1.00001959193
1.00001917163
1.00001874911
1.00001833483
1.00001792338
1.00001751506
1.00001710889
1.0000167044
1.00001630111
1.00001589865
1.00001549675
1.00001509518
1.00001469377
1.00001429242
1.00001389102
1.00001348953
1.00001308792
1.00001268616
1.00001228425
1.0000118822
1.00001148001
1.00001107772
1.00001067534
1.0000102729
1.00000987042
1.00000946793
1.00000906545
1.00000866301
1.00000826064
1.00000785834
1.00000745613
1.00000705402
1.000006652
1.00000625004
1.00000584812
1.00000544618
1.00000504412
1.00000464183
1.00000423914
1.00000383582
1.00000343159
1.00000302608
1.00000261883
1.00000220935
1.00000179671
1.00000138105
1.00000095763
1.00000053474
1.00000004656
1.00002013328
1.00001963398
1.0000192117
1.00001878593
1.00001836843
1.0000179536
1.00001754197
1.00001713263
1.00001672516
1.00001631913
1.00001591419
1.00001551006
1.0000151065
1.00001470335
1.00001430046
1.00001389774
1.00001349509
1.00001309247
1.00001268983
1.00001228716
1.00001188444
1.00001148166
1.00001107883
1.00001067596
1.00001027304
1.00000987009
1.00000946713
1.00000906416
1.00000866118
1.00000825821
1.00000785524
1.00000745227
1.00000704928
1.00000664625
1.00000624313
1.00000583987
1.00000543639
1.00000503257
1.00000462829
1.00000422335
1.00000381754
1.00000341056
1.00000300208
1.00000259166
1.00000217889
1.00000176291
1.00000134408
1.00000091758
1.00000049265
1.00000000027
1.00002017511
1.00001967101
1.00001924716
1.00001881873
1.00001839858
1.00001798094
1.00001756652
1.00001715445
1.00001674441
1.00001633597
1.00001592883
1.00001552269
1.00001511734
1.00001471258
1.00001430828
1.0000139043
1.00001350055
1.00001309696
1.00001269348
1.00001229007
1.00001188669
1.00001148332
1.00001107995
1.00001067657
1.00001027317
1.00000986975
1.00000946631
1.00000906283
1.00000865931
1.00000825575
1.00000785212
1.0000074484
1.00000704457
1.00000664057
1.00000623635
1.00000583184
1.00000542694
1.00000502152
1.00000461544
1.00000420851
1.0000038005
1.00000339114
1.00000298011
1.00000256702
1.00000215151
1.00000173282
1.00000131143
1.0000008825
1.00000045599
0.999999960227
1.00002021157
1.00001970342
1.00001927833
1.00001884772
1.00001842539
1.0000180054
1.00001758863
1.00001717425
1.00001676199
1.00001635146
1.00001594238
1.00001553446
1.0000151275
1.00001472129
1.00001431569
1.00001391056
1.00001350579
1.0000131013
1.00001269702
1.0000122929
1.00001188888
1.00001148494
1.00001108104
1.00001067717
1.0000102733
1.00000986941
1.00000946549
1.00000906151
1.00000865747
1.00000825333
1.00000784907
1.00000744464
1.00000704001
1.00000663511
1.00000622987
1.00000582421
1.00000541802
1.00000501116
1.00000460349
1.0000041948
1.00000378488
1.00000337347
1.00000296028
1.00000254494
1.00000212718
1.00000170626
1.00000128282
1.00000085194
1.0000004242
0.999999925705
1.0000202431
1.00001973157
1.00001930547
1.00001887308
1.00001844896
1.00001802702
1.00001760828
1.00001719195
1.00001677779
1.00001636547
1.00001595469
1.00001554522
1.00001513683
1.00001472934
1.00001432257
1.0000139164
1.0000135107
1.00001310538
1.00001270036
1.00001229558
1.00001189097
1.00001148648
1.00001108208
1.00001067773
1.00001027341
1.00000986907
1.00000946469
1.00000906025
1.0000086557
1.00000825102
1.00000784616
1.00000744107
1.0000070357
1.00000662998
1.00000622382
1.00000581712
1.00000540978
1.00000500165
1.00000459257
1.00000418236
1.0000037708
1.00000335765
1.00000294264
1.00000252544
1.00000210581
1.00000168308
1.00000125798
1.00000082555
1.00000039686
0.999999896137
1.00002027007
1.0000197557
1.00001932881
1.00001889496
1.00001846937
1.00001804583
1.00001762545
1.00001720749
1.00001679174
1.00001637788
1.00001596567
1.00001555485
1.00001514523
1.0000147366
1.00001432881
1.00001392171
1.00001351518
1.00001310912
1.00001270343
1.00001229804
1.00001189289
1.0000114879
1.00001108304
1.00001067825
1.0000102735
1.00000986875
1.00000946395
1.00000905906
1.00000865405
1.00000824887
1.00000784347
1.00000743778
1.00000703175
1.00000662528
1.0000062183
1.0000058107
1.00000540235
1.00000499311
1.00000458282
1.00000417131
1.00000375836
1.00000334374
1.00000292721
1.00000250847
1.00000208732
1.00000166312
1.0000012367
1.00000080304
1.0000003736
0.999999871072
1.00002029275
1.00001977605
1.00001934852
1.00001891349
1.00001848671
1.00001806186
1.00001764015
1.00001722084
1.00001680376
1.00001638863
1.00001597521
1.00001556326
1.00001515258
1.00001474298
1.00001433431
1.00001392641
1.00001351916
1.00001311244
1.00001270617
1.00001230025
1.00001189461
1.00001148917
1.0000110839
1.00001067872
1.00001027358
1.00000986845
1.00000946327
1.00000905799
1.00000865257
1.00000824694
1.00000784106
1.00000743484
1.00000702822
1.00000662111
1.00000621342
1.00000580503
1.00000539581
1.00000498563
1.00000457433
1.00000416172
1.00000374761
1.00000333179
1.00000291401
1.00000249402
1.00000207164
1.00000164627
1.00000121879
1.00000078415
1.00000035414
0.999999850156
1.00002031136
1.00001979277
1.00001936475
1.00001892878
1.00001850106
1.00001807517
1.00001765238
1.00001723198
1.00001681384
1.00001639766
1.00001598325
1.00001557036
1.00001515881
1.00001474841
1.00001433899
1.00001393042
1.00001352256
1.0000131153
1.00001270852
1.00001230215
1.00001189609
1.00001149027
1.00001108464
1.00001067911
1.00001027365
1.00000986819
1.00000946268
1.00000905706
1.00000865128
1.00000824527
1.00000783897
1.0000074323
1.00000702519
1.00000661754
1.00000620924
1.00000580019
1.00000539026
1.0000049793
1.00000456716
1.00000415366
1.00000373861
1.00000332181
1.00000290303
1.00000248204
1.00000205869
1.0000016324
1.0000012041
1.00000076869
1.00000033824
0.999999833108
1.00002032606
1.000019806
1.0000193776
1.00001894091
1.00001851246
1.00001808577
1.00001766215
1.0000172409
1.00001682192
1.00001640493
1.00001598973
1.0000155761
1.00001516386
1.00001475281
1.00001434281
1.0000139337
1.00001352535
1.00001311763
1.00001271045
1.0000123037
1.0000118973
1.00001149118
1.00001108524
1.00001067944
1.00001027371
1.00000986798
1.00000946219
1.00000905629
1.00000865022
1.0000082439
1.00000783726
1.00000743022
1.0000070227
1.00000661461
1.00000620583
1.00000579626
1.00000538575
1.00000497418
1.00000456137
1.00000414717
1.00000373138
1.00000331381
1.00000289427
1.00000247251
1.00000204842
1.00000162141
1.00000119249
1.00000075651
1.00000032572
0.999999819709
1.00002033699
1.00001981584
1.00001938717
1.00001894995
1.00001852098
1.00001809369
1.00001766947
1.0000172476
1.000016828
1.00001641041
1.00001599462
1.00001558045
1.00001516768
1.00001475616
1.00001434571
1.00001393619
1.00001352747
1.00001311942
1.00001271193
1.0000123049
1.00001189824
1.00001149187
1.00001108571
1.00001067969
1.00001027374
1.00000986781
1.00000946182
1.0000090557
1.0000086494
1.00000824284
1.00000783594
1.00000742863
1.0000070208
1.00000661238
1.00000620324
1.00000579327
1.00000538234
1.0000049703
1.000004557
1.00000414228
1.00000372594
1.00000330782
1.00000288771
1.00000246539
1.00000204075
1.00000161324
1.00000118387
1.00000074747
1.00000031645
0.999999809796
1.00002034423
1.00001982237
1.00001939352
1.00001895595
1.00001852663
1.00001809897
1.00001767434
1.00001725206
1.00001683206
1.00001641407
1.0000159979
1.00001558336
1.00001517025
1.00001475841
1.00001434766
1.00001393787
1.0000135289
1.00001312062
1.00001271292
1.0000123057
1.00001189887
1.00001149233
1.00001108602
1.00001067986
1.00001027377
1.00000986769
1.00000946156
1.0000090553
1.00000864885
1.00000824212
1.00000783505
1.00000742755
1.00000701952
1.00000661087
1.00000620149
1.00000579126
1.00000538004
1.0000049677
1.00000455407
1.000004139
1.00000372231
1.00000330382
1.00000288334
1.00000246065
1.00000203567
1.00000160782
1.00000117816
1.0000007415
1.00000031032
0.999999803251
1.00002034784
1.00001982562
1.00001939668
1.00001895895
1.00001852946
1.0000181016
1.00001767678
1.0000172543
1.00001683409
1.0000164159
1.00001599954
1.00001558482
1.00001517154
1.00001475954
1.00001434865
1.00001393872
1.00001352962
1.00001312123
1.00001271342
1.00001230611
1.00001189918
1.00001149257
1.00001108618
1.00001067994
1.00001027378
1.00000986764
1.00000946143
1.0000090551
1.00000864857
1.00000824176
1.0000078346
1.000007427
1.00000701888
1.00000661012
1.00000620061
1.00000579025
1.00000537889
1.00000496639
1.0000045526
1.00000413736
1.0000037205
1.00000330182
1.00000288116
1.00000245829
1.00000203313
1.00000160513
1.00000117532
1.00000073852
1.00000030728
0.999999799998
1.00002034784
1.00001982562
1.00001939668
1.00001895895
1.00001852946
1.0000181016
1.00001767678
1.0000172543
1.00001683409
1.0000164159
1.00001599954
1.00001558482
1.00001517154
1.00001475954
1.00001434865
1.00001393872
1.00001352962
1.00001312123
1.00001271342
1.00001230611
1.00001189918
1.00001149257
1.00001108618
1.00001067994
1.00001027378
1.00000986764
1.00000946143
1.0000090551
1.00000864857
1.00000824176
1.0000078346
1.000007427
1.00000701888
1.00000661012
1.00000620061
1.00000579025
1.00000537889
1.00000496639
1.0000045526
1.00000413736
1.0000037205
1.00000330182
1.00000288116
1.00000245829
1.00000203313
1.00000160513
1.00000117532
1.00000073852
1.00000030728
0.999999799998
1.00002034423
1.00001982237
1.00001939352
1.00001895595
1.00001852663
1.00001809897
1.00001767434
1.00001725206
1.00001683206
1.00001641407
1.0000159979
1.00001558336
1.00001517025
1.00001475841
1.00001434766
1.00001393787
1.0000135289
1.00001312062
1.00001271292
1.0000123057
1.00001189887
1.00001149233
1.00001108602
1.00001067986
1.00001027377
1.00000986769
1.00000946156
1.0000090553
1.00000864885
1.00000824212
1.00000783505
1.00000742755
1.00000701952
1.00000661087
1.00000620149
1.00000579126
1.00000538004
1.0000049677
1.00000455407
1.000004139
1.00000372231
1.00000330382
1.00000288334
1.00000246065
1.00000203567
1.00000160782
1.00000117816
1.0000007415
1.00000031032
0.999999803251
1.00002033699
1.00001981584
1.00001938717
1.00001894995
1.00001852098
1.00001809369
1.00001766947
1.0000172476
1.000016828
1.00001641041
1.00001599462
1.00001558045
1.00001516768
1.00001475616
1.00001434571
1.00001393619
1.00001352747
1.00001311942
1.00001271193
1.0000123049
1.00001189824
1.00001149187
1.00001108571
1.00001067969
1.00001027374
1.00000986781
1.00000946182
1.0000090557
1.0000086494
1.00000824284
1.00000783594
1.00000742863
1.0000070208
1.00000661238
1.00000620324
1.00000579327
1.00000538234
1.0000049703
1.000004557
1.00000414228
1.00000372594
1.00000330782
1.00000288771
1.00000246539
1.00000204075
1.00000161324
1.00000118387
1.00000074747
1.00000031645
0.999999809796
1.00002032606
1.000019806
1.0000193776
1.00001894091
1.00001851246
1.00001808577
1.00001766215
1.0000172409
1.00001682192
1.00001640493
1.00001598973
1.0000155761
1.00001516386
1.00001475281
1.00001434281
1.0000139337
1.00001352535
1.00001311763
1.00001271045
1.0000123037
1.0000118973
1.00001149118
1.00001108524
1.00001067944
1.00001027371
1.00000986798
1.00000946219
1.00000905629
1.00000865022
1.0000082439
1.00000783726
1.00000743022
1.0000070227
1.00000661461
1.00000620583
1.00000579626
1.00000538575
1.00000497418
1.00000456137
1.00000414717
1.00000373138
1.00000331381
1.00000289427
1.00000247251
1.00000204842
1.00000162141
1.00000119249
1.00000075651
1.00000032572
0.999999819709
1.00002031136
1.00001979277
1.00001936475
1.00001892878
1.00001850106
1.00001807517
1.00001765238
1.00001723198
1.00001681384
1.00001639766
1.00001598325
1.00001557036
1.00001515881
1.00001474841
1.00001433899
1.00001393042
1.00001352256
1.0000131153
1.00001270852
1.00001230215
1.00001189609
1.00001149027
1.00001108464
1.00001067911
1.00001027365
1.00000986819
1.00000946268
1.00000905706
1.00000865128
1.00000824527
1.00000783897
1.0000074323
1.00000702519
1.00000661754
1.00000620924
1.00000580019
1.00000539026
1.0000049793
1.00000456716
1.00000415366
1.00000373861
1.00000332181
1.00000290303
1.00000248204
1.00000205869
1.0000016324
1.0000012041
1.00000076869
1.00000033824
0.999999833108
1.00002029275
1.00001977605
1.00001934852
1.00001891349
1.00001848671
1.00001806186
1.00001764015
1.00001722084
1.00001680376
1.00001638863
1.00001597521
1.00001556326
1.00001515258
1.00001474298
1.00001433431
1.00001392641
1.00001351916
1.00001311244
1.00001270617
1.00001230025
1.00001189461
1.00001148917
1.0000110839
1.00001067872
1.00001027358
1.00000986845
1.00000946327
1.00000905799
1.00000865257
1.00000824694
1.00000784106
1.00000743484
1.00000702822
1.00000662111
1.00000621342
1.00000580503
1.00000539581
1.00000498563
1.00000457433
1.00000416172
1.00000374761
1.00000333179
1.00000291401
1.00000249402
1.00000207164
1.00000164627
1.00000121879
1.00000078415
1.00000035414
0.999999850156
1.00002027007
1.0000197557
1.00001932881
1.00001889496
1.00001846937
1.00001804583
1.00001762545
1.00001720749
1.00001679174
1.00001637788
1.00001596567
1.00001555485
1.00001514523
1.0000147366
1.00001432881
1.00001392171
1.00001351518
1.00001310912
1.00001270343
1.00001229804
1.00001189289
1.0000114879
1.00001108304
1.00001067825
1.0000102735
1.00000986875
1.00000946395
1.00000905906
1.00000865405
1.00000824887
1.00000784347
1.00000743778
1.00000703175
1.00000662528
1.0000062183
1.0000058107
1.00000540235
1.00000499311
1.00000458282
1.00000417131
1.00000375836
1.00000334374
1.00000292721
1.00000250847
1.00000208732
1.00000166312
1.0000012367
1.00000080304
1.0000003736
0.999999871072
1.0000202431
1.00001973157
1.00001930547
1.00001887308
1.00001844896
1.00001802702
1.00001760828
1.00001719195
1.00001677779
1.00001636547
1.00001595469
1.00001554522
1.00001513683
1.00001472934
1.00001432257
1.0000139164
1.0000135107
1.00001310538
1.00001270036
1.00001229558
1.00001189097
1.00001148648
1.00001108208
1.00001067773
1.00001027341
1.00000986907
1.00000946469
1.00000906025
1.0000086557
1.00000825102
1.00000784616
1.00000744107
1.0000070357
1.00000662998
1.00000622382
1.00000581712
1.00000540978
1.00000500165
1.00000459257
1.00000418236
1.0000037708
1.00000335765
1.00000294264
1.00000252544
1.00000210581
1.00000168308
1.00000125798
1.00000082555
1.00000039686
0.999999896137
1.00002021157
1.00001970342
1.00001927833
1.00001884772
1.00001842539
1.0000180054
1.00001758863
1.00001717425
1.00001676199
1.00001635146
1.00001594238
1.00001553446
1.0000151275
1.00001472129
1.00001431569
1.00001391056
1.00001350579
1.0000131013
1.00001269702
1.0000122929
1.00001188888
1.00001148494
1.00001108104
1.00001067717
1.0000102733
1.00000986941
1.00000946549
1.00000906151
1.00000865747
1.00000825333
1.00000784907
1.00000744464
1.00000704001
1.00000663511
1.00000622987
1.00000582421
1.00000541802
1.00000501116
1.00000460349
1.0000041948
1.00000378488
1.00000337347
1.00000296028
1.00000254494
1.00000212718
1.00000170626
1.00000128282
1.00000085194
1.0000004242
0.999999925705
1.00002017511
1.00001967101
1.00001924716
1.00001881873
1.00001839858
1.00001798094
1.00001756652
1.00001715445
1.00001674441
1.00001633597
1.00001592883
1.00001552269
1.00001511734
1.00001471258
1.00001430828
1.0000139043
1.00001350055
1.00001309696
1.00001269348
1.00001229007
1.00001188669
1.00001148332
1.00001107995
1.00001067657
1.00001027317
1.00000986975
1.00000946631
1.00000906283
1.00000865931
1.00000825575
1.00000785212
1.0000074484
1.00000704457
1.00000664057
1.00000623635
1.00000583184
1.00000542694
1.00000502152
1.00000461544
1.00000420851
1.0000038005
1.00000339114
1.00000298011
1.00000256702
1.00000215151
1.00000173282
1.00000131143
1.0000008825
1.00000045599
0.999999960227
1.00002013328
1.00001963398
1.0000192117
1.00001878593
1.00001836843
1.0000179536
1.00001754197
1.00001713263
1.00001672516
1.00001631913
1.00001591419
1.00001551006
1.0000151065
1.00001470335
1.00001430046
1.00001389774
1.00001349509
1.00001309247
1.00001268983
1.00001228716
1.00001188444
1.00001148166
1.00001107883
1.00001067596
1.00001027304
1.00000987009
1.00000946713
1.00000906416
1.00000866118
1.00000825821
1.00000785524
1.00000745227
1.00000704928
1.00000664625
1.00000624313
1.00000583987
1.00000543639
1.00000503257
1.00000462829
1.00000422335
1.00000381754
1.00000341056
1.00000300208
1.00000259166
1.00000217889
1.00000176291
1.00000134408
1.00000091758
1.00000049265
1.00000000027
1.00002008548
1.00001959193
1.00001917163
1.00001874911
1.00001833483
1.00001792338
1.00001751506
1.00001710889
1.0000167044
1.00001630111
1.00001589865
1.00001549675
1.00001509518
1.00001469377
1.00001429242
1.00001389102
1.00001348953
1.00001308792
1.00001268616
1.00001228425
1.0000118822
1.00001148001
1.00001107772
1.00001067534
1.0000102729
1.00000987042
1.00000946793
1.00000906545
1.00000866301
1.00000826064
1.00000785834
1.00000745613
1.00000705402
1.000006652
1.00000625004
1.00000584812
1.00000544618
1.00000504412
1.00000464183
1.00000423914
1.00000383582
1.00000343159
1.00000302608
1.00000261883
1.00000220935
1.00000179671
1.00000138105
1.00000095763
1.00000053474
1.00000004656
1.00002003095
1.00001954433
1.00001912655
1.00001870805
1.0000182977
1.0000178903
1.00001748589
1.00001708341
1.00001668233
1.00001628213
1.00001588244
1.00001548299
1.00001508358
1.00001468405
1.00001428432
1.00001388432
1.00001348404
1.00001308345
1.00001268257
1.00001228143
1.00001188003
1.00001147843
1.00001107666
1.00001067475
1.00001027276
1.00000987072
1.00000946868
1.00000906667
1.00000866475
1.00000826296
1.00000786132
1.00000745987
1.00000705864
1.00000665766
1.00000625691
1.00000585641
1.0000054561
1.00000505595
1.00000465584
1.00000425563
1.00000385512
1.00000345403
1.00000305198
1.00000264847
1.00000224294
1.00000183437
1.00000142266
1.00000100313
1.00000058291
1.00000010001
1.0000199687
1.00001949054
1.000019076
1.0000186625
1.00001825695
1.00001785442
1.00001745462
1.00001705642
1.00001665921
1.00001626248
1.00001586586
1.00001546908
1.00001507197
1.00001467443
1.00001427639
1.00001387783
1.00001347877
1.00001307921
1.0000126792
1.00001227879
1.00001187803
1.00001147697
1.00001107568
1.00001067421
1.00001027262
1.00000987098
1.00000946934
1.00000906777
1.00000866633
1.00000826508
1.00000786406
1.00000746336
1.000007063
1.00000666305
1.00000626353
1.00000586448
1.00000546589
1.00000506775
1.00000467
1.00000427252
1.00000387514
1.0000034776
1.00000307953
1.0000026804
1.0000022796
1.00000187601
1.00000146924
1.00000105467
1.00000063799
1.00000016183
1.00001989739
1.00001942975
1.00001901946
1.00001861223
1.00001821259
1.00001781591
1.00001742152
1.00001702824
1.00001663543
1.00001624254
1.00001584925
1.00001545534
1.00001506067
1.00001466519
1.00001426888
1.00001387177
1.00001347391
1.00001307536
1.00001267618
1.00001227646
1.00001187628
1.00001147571
1.00001107483
1.00001067374
1.0000102725
1.00000987119
1.0000094699
1.00000906871
1.00000866768
1.00000826691
1.00000786647
1.00000746644
1.00000706692
1.00000666797
1.00000626966
1.00000587207
1.00000547525
1.00000507921
1.00000468395
1.00000428941
1.00000389548
1.00000350191
1.00000310839
1.00000271438
1.00000231921
1.00000192171
1.00000152113
1.00000111295
1.00000070098
1.00000023359
1.00001981525
1.00001936095
1.00001895629
1.00001855702
1.00001816467
1.00001777503
1.00001738698
1.00001699934
1.00001661144
1.00001622277
1.00001583307
1.00001544218
1.00001505004
1.00001465666
1.00001426208
1.00001386639
1.00001346968
1.00001307207
1.00001267365
1.00001227454
1.00001187486
1.0000114747
1.00001107417
1.00001067337
1.0000102724
1.00000987135
1.00000947033
1.00000906942
1.00000866873
1.00000826836
1.00000786841
1.00000746899
1.00000707021
1.0000066722
1.00000627505
1.00000587889
1.00000548382
1.00000508992
1.00000469725
1.00000430583
1.00000391562
1.00000352645
1.00000313807
1.00000274998
1.00000236149
1.00000197141
1.0000015786
1.00000117871
1.00000077313
1.00000031739
1.00001971982
1.0000192829
1.00001888585
1.00001849676
1.00001811346
1.00001773224
1.00001735158
1.00001697034
1.00001658787
1.00001620377
1.00001581787
1.00001543011
1.00001504052
1.00001464921
1.0000142563
1.00001386195
1.0000134663
1.00001306952
1.00001267176
1.00001227317
1.00001187388
1.00001147403
1.00001107374
1.00001067314
1.00001027234
1.00000987145
1.00000947059
1.00000906987
1.00000866941
1.00000826933
1.00000786976
1.00000747083
1.0000070727
1.0000066755
1.00000627941
1.00000588458
1.00000549119
1.00000509941
1.00000470936
1.00000432118
1.00000393491
1.00000355053
1.00000316787
1.00000278656
1.00000240595
1.00000202487
1.00000164183