/*--------------------------------*- C++ -*----------------------------------*\
| =========                 |                                                 |
| \\      /  F ield         | OpenFOAM: The Open Source CFD Toolbox           |
|  \\    /   O peration     | Version:  2.4.0                                 |
|   \\  /    A nd           | Web:      www.OpenFOAM.org                      |
|    \\/     M anipulation  |                                                 |
\*---------------------------------------------------------------------------*/
FoamFile
{
    version     2.0;
    format      ascii;
    class       volVectorField;
    location    "1000";
    object      U;
}
// * * * * * * * * * * * * * * * * * * * * * * * * * * * * * * * * * * * * * //

dimensions      [0 1 -1 0 0 0 0];

internalField   nonuniform List<vector> 
2500
(
(-0.112385521505 -0.013800522808 0)
(-0.085549583202 -0.00940360104415 0)
(-0.0703107606274 -0.00481233419702 0)
(-0.061579896479 -0.00270613750022 0)
(-0.0560414557813 -0.00161128584969 0)
(-0.0523519725322 -0.00105442909341 0)
(-0.049710493333 -0.000731519659149 0)
(-0.0477494214666 -0.000533707833039 0)
(-0.0462449675557 -0.000401107509472 0)
(-0.0450696657351 -0.000307732246863 0)
(-0.0441396341142 -0.000238556025151 0)
(-0.0433992691958 -0.000185628047259 0)
(-0.0428090997099 -0.000143949224726 0)
(-0.0423405173185 -0.000110424949923 0)
(-0.0419720677684 -8.29534443261e-05 0)
(-0.0416873828017 -6.00893125616e-05 0)
(-0.041473750879 -4.07874930337e-05 0)
(-0.0413211978182 -2.42773497928e-05 0)
(-0.0412218378075 -9.97289666763e-06 0)
(-0.0411694211239 2.58040184039e-06 0)
(-0.0411590056014 1.37431815025e-05 0)
(-0.0411867173739 2.38071179916e-05 0)
(-0.0412495737554 3.30129184921e-05 0)
(-0.0413453523399 4.15632073175e-05 0)
(-0.0414724947868 4.96321849393e-05 0)
(-0.041630037856 5.73729769927e-05 0)
(-0.0418175665421 6.49234158923e-05 0)
(-0.0420351860035 7.24106961817e-05 0)
(-0.0422835102754 7.99552261627e-05 0)
(-0.0425636668076 8.76738517613e-05 0)
(-0.0428773167844 9.56825346779e-05 0)
(-0.0432266919125 0.000104098334743 0)
(-0.043614649221 0.000113040369062 0)
(-0.0440447455994 0.000122628558066 0)
(-0.0445213348157 0.000132978539943 0)
(-0.0450496875619 0.000144187738429 0)
(-0.0456361382735 0.000156307932412 0)
(-0.0462882532155 0.000169288319857 0)
(-0.04701504077 0.000182889080903 0)
(-0.0478272154892 0.000196538253083 0)
(-0.0487377199611 0.00020924648074 0)
(-0.0497628748873 0.000219675931167 0)
(-0.0509254969389 0.000227319214263 0)
(-0.0522632425263 0.000235929384247 0)
(-0.0538469255947 0.000264130067442 0)
(-0.0558319030985 0.000368303121029 0)
(-0.0585210177812 0.000691407742849 0)
(-0.0626372235914 0.00153570304549 0)
(-0.0690703498219 0.00357142970817 0)
(-0.0807034055751 0.00816776084033 0)
(-0.256880129553 -0.0429325430338 0)
(-0.226631085167 -0.0309197582981 0)
(-0.205649790385 -0.0182758892501 0)
(-0.190670319472 -0.0119228868719 0)
(-0.179642420114 -0.00802730202477 0)
(-0.171438033328 -0.00572995439765 0)
(-0.165168956934 -0.00421900427894 0)
(-0.160308998558 -0.00319097891623 0)
(-0.156486020892 -0.00244759256749 0)
(-0.153454254937 -0.00189196542742 0)
(-0.151038774116 -0.00146191674978 0)
(-0.149114903934 -0.00112095199049 0)
(-0.147590344285 -0.000844581143213 0)
(-0.146395738867 -0.000616567037223 0)
(-0.145477836329 -0.000425389863195 0)
(-0.144795236936 -0.000262763303371 0)
(-0.144315386827 -0.000122491562426 0)
(-0.14401253253 1.51538836302e-07 0)
(-0.143866249247 0.000108868906552 0)
(-0.143860384295 0.000206622408251 0)
(-0.14398227915 0.000295835524634 0)
(-0.144222195042 0.000378534376992 0)
(-0.144572886215 0.000456452442276 0)
(-0.145029285686 0.000531109139796 0)
(-0.145588278632 0.000603871619629 0)
(-0.146248547084 0.000676004995091 0)
(-0.147010475092 0.000748715250359 0)
(-0.147876107892 0.000823187784092 0)
(-0.148849162107 0.000900624099724 0)
(-0.149935087088 0.000982278797231 0)
(-0.151141180751 0.00106949905939 0)
(-0.152476766628 0.00116376881357 0)
(-0.153953443765 0.00126676041002 0)
(-0.155585426359 0.00138039641839 0)
(-0.157390001417 0.0015069267225 0)
(-0.159388142558 0.00164902385133 0)
(-0.161605353399 0.00180991256406 0)
(-0.164072830566 0.00199354036731 0)
(-0.166829161538 0.00220487212447 0)
(-0.169922767175 0.00245036229087 0)
(-0.173415724275 0.00273908648019 0)
(-0.177389306134 0.00308488053397 0)
(-0.181952590724 0.00351196905829 0)
(-0.187253851125 0.00406532194531 0)
(-0.193491929718 0.00483626328476 0)
(-0.200929150647 0.00600106296831 0)
(-0.209833226271 0.00790957000634 0)
(-0.220500048104 0.0111451457927 0)
(-0.232553543986 0.0167273659959 0)
(-0.246113733552 0.0250265233793 0)
(-0.324278219386 -0.0622387500249 0)
(-0.307514736746 -0.0476617888215 0)
(-0.293048114841 -0.0313359594261 0)
(-0.280645537403 -0.0222944585942 0)
(-0.270499761898 -0.0159768362744 0)
(-0.262361537059 -0.0118883792134 0)
(-0.255837130287 -0.00898673032701 0)
(-0.250609743586 -0.00690012145617 0)
(-0.246411670502 -0.00532761178913 0)
(-0.243043042855 -0.00411465162322 0)
(-0.240349114176 -0.0031525449333 0)
(-0.238212065963 -0.00237431802337 0)
(-0.236540303517 -0.00173282702924 0)
(-0.235262267668 -0.00119569539221 0)
(-0.234321371536 -0.000739247972041 0)
(-0.233672610629 -0.000346011393095 0)
(-0.233280010459 -2.62436477275e-06 0)
(-0.233114796665 0.000301315604096 0)
(-0.233154022474 0.000574113027999 0)
(-0.233379547172 0.000822530581041 0)
(-0.233777262083 0.00105219838946 0)
(-0.234336505205 0.00126790520378 0)
(-0.235049618289 0.00147381950965 0)
(-0.235911616185 0.0016736594528 0)
(-0.236919946389 0.0018708298228 0)
(-0.238074323829 0.00206853650605 0)
(-0.239376630572 0.00226988711024 0)
(-0.240830873974 0.00247798410083 0)
(-0.242443199798 0.0026960160842 0)
(-0.244221959404 0.00292735240062 0)
(-0.246177832765 0.00317564658827 0)
(-0.24832401119 0.00344495485799 0)
(-0.25067644746 0.00373987785878 0)
(-0.253254182351 0.0040657354367 0)
(-0.25607976599 0.00442879138782 0)
(-0.259179787138 0.0048365465468 0)
(-0.262585557156 0.00529814725069 0)
(-0.26633394482 0.00582494917932 0)
(-0.270468496217 0.00643140340039 0)
(-0.275040647705 0.0071363490901 0)
(-0.280111425012 0.00796537302377 0)
(-0.285752182065 0.00895422269929 0)
(-0.292045413997 0.0101558609341 0)
(-0.299077649699 0.0116487656877 0)
(-0.306926594473 0.0135564936205 0)
(-0.315609408651 0.0160539956165 0)
(-0.324994890515 0.0194093847832 0)
(-0.334604409351 0.0238745053112 0)
(-0.343353768262 0.0298057806469 0)
(-0.349599374636 0.0365469678768 0)
(-0.362298278875 -0.0692262389808 0)
(-0.357568645748 -0.0553748001579 0)
(-0.350892454241 -0.0390715515083 0)
(-0.343527524896 -0.0293102985592 0)
(-0.33662980008 -0.0218222384088 0)
(-0.330561319657 -0.0166712018233 0)
(-0.325407121879 -0.0128050161739 0)
(-0.321115874108 -0.00991175085908 0)
(-0.317589073278 -0.00765809308339 0)
(-0.314725390286 -0.005874769348 0)
(-0.312431488586 -0.00443008461944 0)
(-0.310627542849 -0.00324095726405 0)
(-0.309246440152 -0.00224593746473 0)
(-0.308232622602 -0.00140170244009 0)
(-0.307540265226 -0.000675594985974 0)
(-0.307131738625 -4.29658314451e-05 0)
(-0.306976239196 0.000515447478858 0)
(-0.307048686362 0.00101491942036 0)
(-0.307328821127 0.0014678520276 0)
(-0.307800485958 0.00188449780187 0)
(-0.308451046809 0.00227350996151 0)
(-0.309270932221 0.00264233928797 0)
(-0.310253266167 0.0029975420414 0)
(-0.311393577484 0.00334501998529 0)
(-0.31268957176 0.00369021655726 0)
(-0.314140954639 0.00403828209126 0)
(-0.315749297474 0.00439421944957 0)
(-0.317517937606 0.00476301808493 0)
(-0.319451906425 0.00514978360104 0)
(-0.321557878372 0.00555986896289 0)
(-0.323844133916 0.0059990136499 0)
(-0.326320527451 0.00647349714695 0)
(-0.328998450688 0.00699031502823 0)
(-0.331890773922 0.00755738611949 0)
(-0.33501175198 0.00818380626081 0)
(-0.338376848697 0.00888016093214 0)
(-0.342002472664 0.00965893770735 0)
(-0.345905464538 0.0105350504308 0)
(-0.350102412365 0.0115266143627 0)
(-0.35460810415 0.0126559172884 0)
(-0.359433751322 0.0139511206306 0)
(-0.364581658412 0.0154480101022 0)
(-0.370040416157 0.0171939846944 0)
(-0.375764251583 0.0192491162005 0)
(-0.381662431505 0.0216945738592 0)
(-0.387517103028 0.0246147552777 0)
(-0.392999402475 0.0281148298697 0)
(-0.397338496833 0.0321677685987 0)
(-0.399856223612 0.0367438655604 0)
(-0.39848053506 0.0409944326256 0)
(-0.388628203033 -0.0686829047049 0)
(-0.391917571356 -0.0569596903767 0)
(-0.391273037139 -0.042367802307 0)
(-0.38851510086 -0.0329895753308 0)
(-0.38496374874 -0.0252678939933 0)
(-0.381307261827 -0.0196752197808 0)
(-0.377917198532 -0.0152758656304 0)
(-0.374935046811 -0.0118684724251 0)
(-0.372401550474 -0.00913651990981 0)
(-0.37030595965 -0.00692583619928 0)
(-0.368617043529 -0.00510139412011 0)
(-0.367296791934 -0.00357669514362 0)
(-0.366307198019 -0.00228423578208 0)
(-0.365613114807 -0.00117528524135 0)
(-0.365183336523 -0.000211959567812 0)
(-0.364990798744 0.000634934810701 0)
(-0.365012395971 0.0013886818537 0)
(-0.36522863963 0.00206804172268 0)
(-0.365623272689 0.0026884616056 0)
(-0.366182890595 0.00326285390473 0)
(-0.366896591278 0.00380221232807 0)
(-0.367755660661 0.00431605944223 0)
(-0.368753293565 0.00481280026456 0)
(-0.369884346009 0.00529999907198 0)
(-0.371145113405 0.00578460589896 0)
(-0.372533128162 0.0062731452455 0)
(-0.374046969662 0.00677187884192 0)
(-0.375686078855 0.00728695012982 0)
(-0.377450568994 0.00782451695036 0)
(-0.379341022489 0.00839087736914 0)
(-0.381358262805 0.00899259309109 0)
(-0.383503086377 0.00963661404654 0)
(-0.385775939813 0.0103304085352 0)
(-0.388176515173 0.011082101614 0)
(-0.390703248312 0.0119006297038 0)
(-0.393352654693 0.0127959112813 0)
(-0.396118519022 0.0137790591648 0)
(-0.39899071292 0.014862615148 0)
(-0.401953879407 0.016060909293 0)
(-0.404984981397 0.0173903946913 0)
(-0.408051273766 0.0188703937398 0)
(-0.411103723746 0.0205232850848 0)
(-0.414075179296 0.0223761128958 0)
(-0.41685743533 0.0244578171418 0)
(-0.419312708517 0.0268022596201 0)
(-0.421178616097 0.0294243945057 0)
(-0.422205894495 0.0323291604917 0)
(-0.421699694367 0.0353776166503 0)
(-0.419618006207 0.0383892081413 0)
(-0.413911326357 0.0406849538475 0)
(-0.407644387759 -0.0642088028373 0)
(-0.415755587827 -0.0549458548105 0)
(-0.419255541093 -0.0425860585657 0)
(-0.420007822989 -0.0340899144535 0)
(-0.41920112915 -0.0266849657946 0)
(-0.417664814609 -0.0210675755795 0)
(-0.415894992023 -0.0164729459489 0)
(-0.414149680091 -0.0128062446123 0)
(-0.41256214561 -0.00979295765105 0)
(-0.411189483571 -0.00730733826972 0)
(-0.410050420128 -0.00522349409114 0)
(-0.409142832619 -0.00345986584011 0)
(-0.408454910366 -0.00194914592022 0)
(-0.407970609496 -0.000641653197828 0)
(-0.407672804986 0.000502424818304 0)
(-0.407544810114 0.00151435839968 0)
(-0.407571148098 0.00241955401959 0)
(-0.40773784781 0.00323875590872 0)
(-0.408032508635 0.00398923024303 0)
(-0.408444230014 0.00468551254551 0)
(-0.408963476464 0.00534002700813 0)
(-0.409581909048 0.00596353767473 0)
(-0.410292202966 0.0065655110486 0)
(-0.411087859271 0.00715439975404 0)
(-0.41196301411 0.00773787377582 0)
(-0.412912245072 0.0083230096976 0)
(-0.413930372253 0.00891644915147 0)
(-0.415012250027 0.00952453305507 0)
(-0.416152544605 0.0101534172168 0)
(-0.417345491011 0.0108091730911 0)
(-0.41858462326 0.0114978768547 0)
(-0.419862468126 0.0122256888459 0)
(-0.421170197178 0.0129989259991 0)
(-0.422497218164 0.0138241278742 0)
(-0.423830712274 0.0147081218201 0)
(-0.425155057887 0.0156580840137 0)
(-0.426451216854 0.0166816170758 0)
(-0.427695822383 0.0177868183405 0)
(-0.428860422541 0.0189824237261 0)
(-0.429909583998 0.0202778619167 0)
(-0.430800381765 0.0216835768253 0)
(-0.431476612463 0.0232106589883 0)
(-0.431871831047 0.0248714045807 0)
(-0.431886166961 0.0266756622099 0)
(-0.431416738454 0.0286310860804 0)
(-0.430251333148 0.0307217719741 0)
(-0.428283283935 0.0329088250318 0)
(-0.42497094862 0.0350388514981 0)
(-0.420681393791 0.0368928869408 0)
(-0.413588566957 0.0380573001705 0)
(-0.420613768286 -0.058070159301 0)
(-0.431165376431 -0.0511055983186 0)
(-0.437212811458 -0.0409672930874 0)
(-0.440372485417 -0.03352377328 0)
(-0.441594636627 -0.0267064190992 0)
(-0.441712856599 -0.0213090270496 0)
(-0.441243579597 -0.0167469600075 0)
(-0.440502637739 -0.0130093079399 0)
(-0.439675502827 -0.00987314143149 0)
(-0.438864904675 -0.00724376362914 0)
(-0.438125723618 -0.00501079422709 0)
(-0.437483849787 -0.00310187494159 0)
(-0.436948907262 -0.00145377620146 0)
(-0.436521163367 -1.87777886166e-05 0)
(-0.436195906799 0.00124250685929 0)
(-0.435965868065 0.00236157381614 0)
(-0.435822676569 0.00336444885939 0)
(-0.435757650139 0.00427262544135 0)
(-0.435762226286 0.00510414770773 0)
(-0.435828159748 0.0058742772114 0)
(-0.43594758789 0.00659607610389 0)
(-0.436113012865 0.0072808333499 0)
(-0.436317235244 0.00793841465735 0)
(-0.436553257288 0.00857753708729 0)
(-0.436814167484 0.00920599365963 0)
(-0.437093012275 0.00983083580552 0)
(-0.437382658191 0.0104585240663 0)
(-0.437675645437 0.0110950527735 0)
(-0.437964033153 0.0117460539567 0)
(-0.438239235212 0.0124168840818 0)
(-0.438491846477 0.0131126968485 0)
(-0.438711455887 0.0138385043731 0)
(-0.438886449649 0.0145992298029 0)
(-0.439003790944 0.015399752725 0)
(-0.439048797285 0.0162449531622 0)
(-0.439004851559 0.0171397519297 0)
(-0.438853159957 0.0180891646153 0)
(-0.438572239608 0.0190983441566 0)
(-0.438137736755 0.0201726723378 0)
(-0.437520988611 0.0213177459805 0)
(-0.43668955237 0.0225394904423 0)
(-0.435601685576 0.0238435950963 0)
(-0.434212193298 0.0252352767296 0)
(-0.432448461213 0.0267156295449 0)
(-0.430250956976 0.0282793218947 0)
(-0.427462060029 0.0298984920199 0)
(-0.424071773403 0.0315148135022 0)
(-0.419665851918 0.0329938403696 0)
(-0.414768410046 0.0341234517615 0)
(-0.407848392119 0.0347093660323 0)
(-0.428333654557 -0.05154596916 0)
(-0.439658120526 -0.0465015427623 0)
(-0.447016766015 -0.0383529833696 0)
(-0.451653143144 -0.0319727025969 0)
(-0.454251921153 -0.025858644095 0)
(-0.455558472664 -0.02082246298 0)
(-0.45605013173 -0.0164431974455 0)
(-0.456057081282 -0.0127705334961 0)
(-0.455786896298 -0.00963387982597 0)
(-0.45536936951 -0.00696750728717 0)
(-0.454883344078 -0.00467918335298 0)
(-0.454375287424 -0.00270749593283 0)
(-0.453871547795 -0.00099548872494 0)
(-0.453385857306 0.00050086372127 0)
(-0.452924227688 0.00181897929293 0)
(-0.452487912608 0.00298932293406 0)
(-0.452075301045 0.00403748224578 0)
(-0.451683063286 0.00498482232944 0)
(-0.451306862513 0.00584942722923 0)
(-0.450941774775 0.00664666288229 0)
(-0.450582532328 0.0073897031133 0)
(-0.450223651189 0.00808991699673 0)
(-0.449859486862 0.00875719618079 0)
(-0.449484243746 0.00940021483657 0)
(-0.449091955603 0.0100266455138 0)
(-0.448676447711 0.0106433361116 0)
(-0.448231287746 0.0112564573959 0)
(-0.447749729692 0.0118716260127 0)
(-0.447224653815 0.0124940079963 0)
(-0.446648503807 0.0131284063178 0)
(-0.44601322306 0.0137793358179 0)
(-0.44531018717 0.014451088071 0)
(-0.444530137236 0.0151477892195 0)
(-0.443663097172 0.0158734521961 0)
(-0.442698298105 0.0166320275669 0)
(-0.441624031092 0.0174274499443 0)
(-0.440427555154 0.0182636887941 0)
(-0.439094691046 0.0191447778941 0)
(-0.437609787082 0.0200748477846 0)
(-0.435954286281 0.021058030098 0)
(-0.434107534897 0.0220983173491 0)
(-0.432041163119 0.0231988151075 0)
(-0.429726088838 0.0243607263746 0)
(-0.427108888003 0.0255800497484 0)
(-0.424156057146 0.026843332738 0)
(-0.420747467275 0.0281176378886 0)
(-0.416920582596 0.0293371864708 0)
(-0.412358079591 0.0303940907806 0)
(-0.407596980661 0.0311044441074 0)
(-0.401387004472 0.0314083839793 0)
(-0.431776554117 -0.0453116280558 0)
(-0.442822883864 -0.0417545577107 0)
(-0.450614591059 -0.0352903854835 0)
(-0.456014230857 -0.0299074545931 0)
(-0.459459874016 -0.0245279305083 0)
(-0.461560233255 -0.0199305412805 0)
(-0.462723175877 -0.0158302410208 0)
(-0.463262562474 -0.0123178592077 0)
(-0.463386978964 -0.00927115731296 0)
(-0.463238473362 -0.00664970844384 0)
(-0.462909885311 -0.00437988972081 0)
(-0.462461769673 -0.00241160232288 0)
(-0.461932968154 -0.000695254087381 0)
(-0.461348026391 0.000808551518291 0)
(-0.460722071713 0.00213433105866 0)
(-0.460064012158 0.0033107357179 0)
(-0.459378649342 0.00436224010313 0)
(-0.458668050183 0.0053095254935 0)
(-0.457932450106 0.00617026007083 0)
(-0.4571708394 0.00695955021406 0)
(-0.456381346656 0.0076903984517 0)
(-0.455561486311 0.00837404532622 0)
(-0.454708317949 0.00902026885014 0)
(-0.453818546916 0.00963762688074 0)
(-0.452888586579 0.0102336629239 0)
(-0.451914595212 0.0108150778646 0)
(-0.450892496234 0.0113878757154 0)
(-0.449817987142 0.0119574872584 0)
(-0.44868654068 0.0125288759169 0)
(-0.447493399113 0.0131066288578 0)
(-0.44623356289 0.0136950361013 0)
(-0.444901768898 0.0142981595594 0)
(-0.443492461157 0.0149198938647 0)
(-0.441999732611 0.0155640191205 0)
(-0.440417260048 0.0162342464211 0)
(-0.438738143864 0.0169342507901 0)
(-0.436954787882 0.0176676899376 0)
(-0.435058430003 0.0184381833482 0)
(-0.433039058974 0.0192492416151 0)
(-0.430883911068 0.0201040505124 0)
(-0.428578348578 0.0210050667121 0)
(-0.426100475931 0.0219531368681 0)
(-0.423428663944 0.0229459402459 0)
(-0.420519911793 0.0239753182205 0)
(-0.417353949835 0.025022203082 0)
(-0.413837358547 0.026051993664 0)
(-0.410028031768 0.0269995996125 0)
(-0.405683127412 0.0277821920666 0)
(-0.401294352632 0.0282523206885 0)
(-0.395838779391 0.0284167655054 0)
(-0.432100307729 -0.0396701107055 0)
(-0.44230632906 -0.0372035656924 0)
(-0.449971009131 -0.0321140990374 0)
(-0.455635620969 -0.0276265852173 0)
(-0.459535911138 -0.0229639697842 0)
(-0.462131583922 -0.0188403885407 0)
(-0.463749563184 -0.0150760254 0)
(-0.464668119495 -0.0117871601055 0)
(-0.465082773804 -0.00889346793715 0)
(-0.465136432972 -0.00637576316964 0)
(-0.464927969398 -0.00417822321865 0)
(-0.464526420257 -0.0022617001592 0)
(-0.463979300618 -0.000584364257195 0)
(-0.463319396606 0.000888117297749 0)
(-0.462569250752 0.00218683227988 0)
(-0.461744339703 0.00333815200258 0)
(-0.460855225377 0.00436502046238 0)
(-0.459909030227 0.00528709061259 0)
(-0.458910445128 0.00612133538423 0)
(-0.45786242031 0.00688238637672 0)
(-0.456766642108 0.00758291741363 0)
(-0.455623863428 0.00823393651521 0)
(-0.454434134898 0.00884505274086 0)
(-0.453196967569 0.00942469707858 0)
(-0.451911448275 0.00998031451778 0)
(-0.450576321492 0.0105185270898 0)
(-0.44919004689 0.0110452742766 0)
(-0.447750838124 0.0115659333205 0)
(-0.446256686314 0.0120854227484 0)
(-0.444705368658 0.01260829119 0)
(-0.443094442934 0.013138793289 0)
(-0.441421222212 0.0136809535973 0)
(-0.439682732214 0.0142386187686 0)
(-0.437875629092 0.0148154966931 0)
(-0.43599610113 0.0154151801774 0)
(-0.434039667006 0.0160411482519 0)
(-0.432001013377 0.0166967354062 0)
(-0.429873494179 0.0173850469069 0)
(-0.427649042123 0.0181087863565 0)
(-0.425316760616 0.0188699414572 0)
(-0.422863938332 0.0196692018383 0)
(-0.420271315836 0.0205050633027 0)
(-0.417520796371 0.0213720743045 0)
(-0.414576639723 0.0222589245653 0)
(-0.411426943782 0.0231435245099 0)
(-0.408000056886 0.023992267441 0)
(-0.404362148309 0.0247461552837 0)
(-0.400326379805 0.0253431290252 0)
(-0.396324965496 0.0256713613739 0)
(-0.391503089312 0.0257636476506 0)
(-0.43046134703 -0.034709758772 0)
(-0.439609689503 -0.0330121447923 0)
(-0.446840607323 -0.0290150199617 0)
(-0.45245785198 -0.0253057752126 0)
(-0.45654748411 -0.021311886201 0)
(-0.459431808354 -0.0176659314935 0)
(-0.46135770696 -0.014264315792 0)
(-0.46255823503 -0.0112361865911 0)
(-0.463207176717 -0.00853554816298 0)
(-0.463439970122 -0.00616035232399 0)
(-0.463355253447 -0.00407096761672 0)
(-0.463025740602 -0.00223840791996 0)
(-0.462504135523 -0.000628548948413 0)
(-0.461828918052 0.000787758698937 0)
(-0.461028195983 0.00203790623951 0)
(-0.460122654207 0.00314571204859 0)
(-0.459127600173 0.00413232097744 0)
(-0.458054435753 0.00501612373194 0)
(-0.456911692524 0.00581319856644 0)
(-0.45570576961 0.00653754015329 0)
(-0.454441459611 0.00720136515935 0)
(-0.453122326885 0.00781535118687 0)
(-0.4517509814 0.00838886666644 0)
(-0.450329278313 0.00893016603032 0)
(-0.448858463835 0.00944656357405 0)
(-0.447339281295 0.00994458324449 0)
(-0.445772046726 0.0104300889155 0)
(-0.444156699749 0.0109083962967 0)
(-0.442492833467 0.0113843686842 0)
(-0.440779704149 0.011862497687 0)
(-0.43901622197 0.0123469697894 0)
(-0.437200917882 0.0128417187456 0)
(-0.435331890312 0.0133504629215 0)
(-0.433406711625 0.0138767252726 0)
(-0.431422320634 0.0144238314559 0)
(-0.429374820912 0.0149948789288 0)
(-0.427259330948 0.0155926627242 0)
(-0.425069536464 0.0162195417844 0)
(-0.422797677061 0.0168771996611 0)
(-0.420433366818 0.0175662828577 0)
(-0.417964773437 0.018285749833 0)
(-0.415374682015 0.0190320580411 0)
(-0.412648060336 0.0197974843337 0)
(-0.409756066608 0.0205689151623 0)
(-0.406693634109 0.0213236283755 0)
(-0.403407212598 0.022030844411 0)
(-0.399965467669 0.0226402029378 0)
(-0.396221632082 0.0231057137922 0)
(-0.392552067903 0.0233455872264 0)
(-0.388220682189 0.0233983911636 0)
(-0.427832633046 -0.0304031463159 0)
(-0.435918886494 -0.0292336096585 0)
(-0.442589057822 -0.026087363936 0)
(-0.447988921489 -0.0230372226019 0)
(-0.452104151076 -0.0196458081539 0)
(-0.455143333608 -0.0164587075966 0)
(-0.457281719166 -0.0134237532987 0)
(-0.458704900683 -0.0106731742263 0)
(-0.459560495715 -0.00818747189872 0)
(-0.459970911667 -0.0059777380368 0)
(-0.460029823117 -0.00401840677575 0)
(-0.45980964741 -0.00228958014715 0)
(-0.459365193191 -0.000764455586683 0)
(-0.45873822431 0.000581032353611 0)
(-0.457960545746 0.0017704902159 0)
(-0.457056573535 0.00282503568242 0)
(-0.45604516787 0.00376383648916 0)
(-0.454941015443 0.00460384629587 0)
(-0.453755629579 0.00536008407335 0)
(-0.452498087649 0.00604575929243 0)
(-0.451175571051 0.00667249908056 0)
(-0.449793764753 0.00725053302558 0)
(-0.448357153781 0.00778888347897 0)
(-0.446869244503 0.00829553217968 0)
(-0.445332729789 0.00877757279187 0)
(-0.443749611466 0.00924134436043 0)
(-0.44212128932 0.0096925484347 0)
(-0.44044862264 0.0101363497316 0)
(-0.438731968497 0.0105774615292 0)
(-0.436971198244 0.0110202161173 0)
(-0.435165694422 0.0114686204231 0)
(-0.433314324504 0.0119263961879 0)
(-0.431415396683 0.0123970030397 0)
(-0.429466580655 0.0128836417084 0)
(-0.427464821475 0.0133892318001 0)
(-0.425406174989 0.0139163575418 0)
(-0.423285708194 0.0144671653522 0)
(-0.421097148172 0.0150432029364 0)
(-0.418832969095 0.0156451501893 0)
(-0.416483469204 0.0162724530429 0)
(-0.414038062635 0.0169226848354 0)
(-0.411482074071 0.0175908626098 0)
(-0.408803892794 0.0182679900045 0)
(-0.405981370354 0.0189403981516 0)
(-0.403015198489 0.0195864206094 0)
(-0.399866076449 0.020179006409 0)
(-0.396602058754 0.0206768111842 0)
(-0.393103710045 0.0210457932152 0)
(-0.389700717938 0.0212273368064 0)
(-0.385739692787 0.0212573451874 0)
(-0.424911438171 -0.0266687189422 0)
(-0.432041487521 -0.0258559698987 0)
(-0.438135640398 -0.0233640213251 0)
(-0.443244582024 -0.0208610753032 0)
(-0.447293536855 -0.0179981321738 0)
(-0.450404177031 -0.0152365596286 0)
(-0.452692152039 -0.0125561782922 0)
(-0.454298320082 -0.0100851515326 0)
(-0.455342970466 -0.00782310507918 0)
(-0.455932343359 -0.00579052438784 0)
(-0.456151884161 -0.00397349593421 0)
(-0.45607065856 -0.00235994156858 0)
(-0.455743033499 -0.000929748178981 0)
(-0.45521196291 0.000336338604882 0)
(-0.454511262024 0.00145819784443 0)
(-0.45366770489 0.00245420053407 0)
(-0.452702573575 0.00334143381878 0)
(-0.45163288712 0.00413528936986 0)
(-0.450472319095 0.00484959437152 0)
(-0.449231898119 0.00549664268591 0)
(-0.447920535511 0.00608734672442 0)
(-0.446545427034 0.00663136959145 0)
(-0.445112358906 0.0071372755 0)
(-0.443625942232 0.00761266707263 0)
(-0.442089792619 0.00806431544156 0)
(-0.440506667283 0.00849827629567 0)
(-0.438878568381 0.00891999292806 0)
(-0.437206818529 0.00933438503627 0)
(-0.435492112973 0.00974592355708 0)
(-0.433734550425 0.0101586911815 0)
(-0.431933645469 0.0105764280823 0)
(-0.430088320148 0.0110025617804 0)
(-0.428196880928 0.0114402190168 0)
(-0.42625696675 0.0118922167092 0)
(-0.424265496626 0.0123610260094 0)
(-0.422218553828 0.0128487037415 0)
(-0.420111343068 0.0133567751799 0)
(-0.417937938021 0.0138860628557 0)
(-0.415691453997 0.0144364142602 0)
(-0.413363349521 0.0150063576247 0)
(-0.410944760631 0.0155925230645 0)
(-0.408423885263 0.0161890982138 0)
(-0.405792588382 0.0167866493695 0)
(-0.403034681539 0.0173718528159 0)
(-0.400155388903 0.0179250354742 0)
(-0.397125953642 0.0184230719365 0)
(-0.394012168761 0.0188328188119 0)
(-0.390712652464 0.0191289600448 0)
(-0.387520073537 0.0192698329203 0)
(-0.383839179727 0.0192860725091 0)
(-0.422119477753 -0.0234078807043 0)
(-0.428440332736 -0.0228342110492 0)
(-0.434001962171 -0.0208429784396 0)
(-0.438804140541 -0.0187884586136 0)
(-0.442740663205 -0.0163804617333 0)
(-0.445870895077 -0.0140038000679 0)
(-0.448263686869 -0.0116562349987 0)
(-0.450020703524 -0.00945711232497 0)
(-0.451236081797 -0.00741877026338 0)
(-0.451998755002 -0.00556774205426 0)
(-0.452384027761 -0.00389927768175 0)
(-0.452455511029 -0.00240774034822 0)
(-0.452265218726 -0.00107889264282 0)
(-0.45185564509 0.00010212464663 0)
(-0.451261250027 0.00115164781858 0)
(-0.45051004318 0.00208535086006 0)
(-0.449624808692 0.00291821196369 0)
(-0.448624137648 0.00366399199743 0)
(-0.447523228718 0.00433523686188 0)
(-0.446334524126 0.00494322744324 0)
(-0.445068204523 0.00549806265098 0)
(-0.443732578043 0.0060087427548 0)
(-0.442334385563 0.00648328169923 0)
(-0.440879041537 0.006928816 0)
(-0.439370824097 0.00735171276837 0)
(-0.437813024946 0.00775766855113 0)
(-0.436208066776 0.00815179850439 0)
(-0.434557593738 0.00853871368891 0)
(-0.432862539318 0.0089225859575 0)
(-0.431123173894 0.00930719949347 0)
(-0.429339135227 0.00969598804804 0)
(-0.427509440406 0.0100920564623 0)
(-0.425632485968 0.010498184061 0)
(-0.423706024336 0.0109168069929 0)
(-0.421727144505 0.0113499736391 0)
(-0.419692202018 0.0117992683723 0)
(-0.41759682568 0.0122656890755 0)
(-0.415435749839 0.0127494771274 0)
(-0.413203049671 0.0132498590039 0)
(-0.410891621955 0.0137647386045 0)
(-0.408494510217 0.0142902013202 0)
(-0.406002736401 0.0148201009788 0)
(-0.403411327686 0.0153451584167 0)
(-0.400709016856 0.0158529494807 0)
(-0.397904358853 0.0163261796887 0)
(-0.394976043582 0.0167454431224 0)
(-0.391986880672 0.0170845303994 0)
(-0.38884724232 0.0173244788108 0)
(-0.385821104561 0.0174356630925 0)
(-0.382355029505 0.0174433209102 0)
(-0.41966006132 -0.0205258107586 0)
(-0.425319951413 -0.020112256575 0)
(-0.430416181794 -0.0185057755529 0)
(-0.434925871436 -0.0168166991546 0)
(-0.438730567742 -0.0147961537023 0)
(-0.441847412249 -0.0127621876018 0)
(-0.444310248182 -0.0107211495082 0)
(-0.44618822304 -0.00878081606893 0)
(-0.447551960401 -0.00696104759533 0)
(-0.448473443811 -0.00529159038739 0)
(-0.449017078351 -0.0037744770915 0)
(-0.449239802029 -0.00240911102059 0)
(-0.449190002227 -0.0011862058937 0)
(-0.448908537844 -9.47731862888e-05 0)
(-0.448429506983 0.000878271841215 0)
(-0.447781319332 0.00174604279493 0)
(-0.446987582189 0.00252145311922 0)
(-0.446067911442 0.00321662217649 0)
(-0.445038592219 0.00384277282272 0)
(-0.443913129765 0.00441011525715 0)
(-0.442702695282 0.00492787025443 0)
(-0.441416489708 0.00540430934618 0)
(-0.440062038835 0.00584683233357 0)
(-0.438645433681 0.00626204979832 0)
(-0.437171526123 0.00665587024588 0)
(-0.435644088036 0.00703358251782 0)
(-0.434065940238 0.00739993166439 0)
(-0.432439056005 0.00775918527041 0)
(-0.430764643102 0.00811518900476 0)
(-0.429043206669 0.00847140996321 0)
(-0.427274596317 0.0088309664691 0)
(-0.425458036727 0.00919664268161 0)
(-0.423592148721 0.0095708854932 0)
(-0.421674951171 0.00995578094074 0)
(-0.419703870722 0.010353004733 0)
(-0.417675711514 0.0107637432632 0)
(-0.41558670284 0.0111885727771 0)
(-0.413432401155 0.0116272984872 0)
(-0.411207969174 0.0120787206801 0)
(-0.408907793726 0.0125403707989 0)
(-0.406526771369 0.0130081055839 0)
(-0.404058464994 0.0134758090116 0)
(-0.401500585431 0.013934736953 0)
(-0.398845735748 0.0143736609977 0)
(-0.396104794019 0.0147777138953 0)
(-0.393261545956 0.0151308207819 0)
(-0.390375658475 0.0154124033475 0)
(-0.387365161149 0.0156081522739 0)
(-0.384471940524 0.0156968723149 0)
(-0.381173507459 0.0156991111695 0)
(-0.417592902402 -0.0179411400725 0)
(-0.422722701819 -0.017635710541 0)
(-0.42742450261 -0.0163286799797 0)
(-0.431669237149 -0.0149379201142 0)
(-0.435337709762 -0.0132462374967 0)
(-0.438419971561 -0.0115149187566 0)
(-0.440924766957 -0.00975320550157 0)
(-0.44289539753 -0.00805607377072 0)
(-0.444382333905 -0.00644697289091 0)
(-0.445441956228 -0.00495658681124 0)
(-0.44612789419 -0.00359159287772 0)
(-0.446489929451 -0.00235509183408 0)
(-0.446572108851 -0.00124178511125 0)
(-0.446412906261 -0.000243964070776 0)
(-0.446045373605 0.000648572465374 0)
(-0.445497735154 0.0014465835332 0)
(-0.444793941675 0.00216102285549 0)
(-0.44395425085 0.00280240816948 0)
(-0.442995734957 0.00338063987574 0)
(-0.441932732779 0.00390483516866 0)
(-0.440777234196 0.00438330221763 0)
(-0.439539208382 0.00482354407781 0)
(-0.438226880515 0.00523230574672 0)
(-0.436846965108 0.00561563303654 0)
(-0.435404861965 0.00597894054562 0)
(-0.433904820396 0.00632707873695 0)
(-0.432350076285 0.00666439724649 0)
(-0.430742965761 0.00699480081552 0)
(-0.429085018897 0.00732179605682 0)
(-0.42737703561 0.00764852725292 0)
(-0.425619147205 0.00797779958243 0)
(-0.423810863399 0.00831208800119 0)
(-0.421951112017 0.00865352931064 0)
(-0.420038263557 0.00900389491271 0)
(-0.418070166479 0.00936453958622 0)
(-0.416044151381 0.00973632373369 0)
(-0.413957112685 0.01011949935 0)
(-0.411805467046 0.0105135637034 0)
(-0.409585462059 0.0109170557319 0)
(-0.407292894931 0.0113273378167 0)
(-0.404924342204 0.0117402766675 0)
(-0.402475542687 0.0121500403835 0)