/*--------------------------------*- C++ -*----------------------------------*\
| =========                 |                                                 |
| \\      /  F ield         | OpenFOAM: The Open Source CFD Toolbox           |
|  \\    /   O peration     | Version:  2.4.0                                 |
|   \\  /    A nd           | Web:      www.OpenFOAM.org                      |
|    \\/     M anipulation  |                                                 |
\*---------------------------------------------------------------------------*/
FoamFile
{
    version     2.0;
    format      ascii;
    class       volVectorField;
    location    "1000";
    object      U;
}
// * * * * * * * * * * * * * * * * * * * * * * * * * * * * * * * * * * * * * //

dimensions      [0 1 -1 0 0 0 0];

internalField   nonuniform List<vector> 
2500
(
(2.3851384114e-05 4.56797658005e-07 0)
(2.33747532053e-05 6.60570024223e-08 0)
(2.34071882218e-05 -5.47898051252e-08 0)
(2.3556029979e-05 -6.79331965362e-08 0)
(2.3726011506e-05 -5.73601709573e-08 0)
(2.3877951051e-05 -4.51337939344e-08 0)
(2.4008245368e-05 -3.57344084425e-08 0)
(2.41190155778e-05 -2.90626055896e-08 0)
(2.42137441601e-05 -2.42263076415e-08 0)
(2.42952166795e-05 -2.05361014976e-08 0)
(2.43655694756e-05 -1.75747032823e-08 0)
(2.44264316046e-05 -1.51097910042e-08 0)
(2.44790947957e-05 -1.30100485509e-08 0)
(2.45246144517e-05 -1.11959190593e-08 0)
(2.45638719911e-05 -9.61409352297e-09 0)
(2.45976121196e-05 -8.22529485857e-09 0)
(2.46264671104e-05 -6.99842994342e-09 0)
(2.46509736638e-05 -5.90767096059e-09 0)
(2.46715853412e-05 -4.93085194e-09 0)
(2.46886820297e-05 -4.04848278424e-09 0)
(2.47025772415e-05 -3.24307082403e-09 0)
(2.47135237156e-05 -2.49861404892e-09 0)
(2.47217176289e-05 -1.80019746516e-09 0)
(2.47273016141e-05 -1.13365469831e-09 0)
(2.47303667209e-05 -4.85270641823e-10 0)
(2.47309533966e-05 1.58493357817e-10 0)
(2.47290515321e-05 8.11264744412e-10 0)
(2.47245995658e-05 1.48702743849e-09 0)
(2.47174826063e-05 2.20040654529e-09 0)
(2.47075294961e-05 2.96698184574e-09 0)
(2.4694508683e-05 3.80364701154e-09 0)
(2.467812271e-05 4.72903763714e-09 0)
(2.46580010578e-05 5.76405461573e-09 0)
(2.46336909658e-05 6.9325318861e-09 0)
(2.46046456978e-05 8.26212354214e-09 0)
(2.45702094712e-05 9.7855578638e-09 0)
(2.45295978093e-05 1.15425763022e-08 0)
(2.44818712044e-05 1.35832872393e-08 0)
(2.44258980574e-05 1.59746437753e-08 0)
(2.43602993208e-05 1.88138775204e-08 0)
(2.42833587355e-05 2.225713095e-08 0)
(2.41928746451e-05 2.65779342394e-08 0)
(2.40859014085e-05 3.22776533709e-08 0)
(2.39584130817e-05 4.02460042195e-08 0)
(2.38048640128e-05 5.18698116705e-08 0)
(2.36193117957e-05 6.84402433454e-08 0)
(2.33984480421e-05 8.80284505813e-08 0)
(2.31680745646e-05 9.32032860342e-08 0)
(2.30072517908e-05 5.01291217712e-09 0)
(2.32820547363e-05 -3.41418632164e-07 0)
(8.56358269837e-05 1.2700670652e-06 0)
(8.51348058938e-05 2.52606103312e-07 0)
(8.51745295776e-05 -2.19600276349e-07 0)
(8.54472161655e-05 -3.45122518104e-07 0)
(8.58221963262e-05 -3.49611022814e-07 0)
(8.62120844189e-05 -3.18308677734e-07 0)
(8.65829454615e-05 -2.8054403412e-07 0)
(8.69210434294e-05 -2.44964898818e-07 0)
(8.7223319134e-05 -2.1343357741e-07 0)
(8.74907968431e-05 -1.85872722111e-07 0)
(8.77261124352e-05 -1.61787740115e-07 0)
(8.79323205757e-05 -1.40678926556e-07 0)
(8.81124372038e-05 -1.22119000099e-07 0)
(8.82692560601e-05 -1.05750144004e-07 0)
(8.84052914976e-05 -9.12686573752e-08 0)
(8.85227701874e-05 -7.84123234919e-08 0)
(8.8623642623e-05 -6.69514319386e-08 0)
(8.87096010726e-05 -5.66822772779e-08 0)
(8.87820985365e-05 -4.7422136557e-08 0)
(8.88423663332e-05 -3.90051752932e-08 0)
(8.88914293743e-05 -3.1278985677e-08 0)
(8.89301187928e-05 -2.41015862217e-08 0)
(8.8959081861e-05 -1.73387636268e-08 0)
(8.89787892329e-05 -1.08616617966e-08 0)
(8.89895395614e-05 -4.54453321271e-09 0)
(8.89914615202e-05 1.73742366717e-09 0)
(8.8984513216e-05 8.11021554224e-09 0)
(8.89684789147e-05 1.47032673902e-08 0)
(8.8942962942e-05 2.16517782528e-08 0)
(8.89073805338e-05 2.90993087769e-08 0)
(8.88609453245e-05 3.7200707726e-08 0)
(8.88026530525e-05 4.6125507082e-08 0)
(8.87312609457e-05 5.60619551172e-08 0)
(8.8645262123e-05 6.72219072091e-08 0)
(8.85428542132e-05 7.98468804061e-08 0)
(8.84219013309e-05 9.42157286335e-08 0)
(8.82798886221e-05 1.10654678759e-07 0)
(8.81138691669e-05 1.29551041521e-07 0)
(8.79204047178e-05 1.51372983085e-07 0)
(8.76955072722e-05 1.76699363825e-07 0)
(8.74346006854e-05 2.06264783266e-07 0)
(8.71325629664e-05 2.41018324863e-07 0)
(8.67839767963e-05 2.82156662786e-07 0)
(8.63840116426e-05 3.30936152782e-07 0)
(8.59305182562e-05 3.87579119033e-07 0)
(8.54301232642e-05 4.47154762496e-07 0)
(8.49081699967e-05 4.86452984759e-07 0)
(8.44423054737e-05 4.28065353577e-07 0)
(8.41633420467e-05 4.87826784783e-08 0)
(8.43782244764e-05 -8.73288839152e-07 0)
(0.000146025743601 1.9100640413e-06 0)
(0.000145596823726 4.56495557417e-07 0)
(0.000145575639934 -3.81439225732e-07 0)
(0.000145813936593 -7.05155062911e-07 0)
(0.000146213265384 -7.893888084e-07 0)
(0.000146677990939 -7.70777714052e-07 0)
(0.000147154478645 -7.12938638366e-07 0)
(0.000147612616743 -6.43199809317e-07 0)
(0.000148038240305 -5.72972843746e-07 0)
(0.000148425690595 -5.06727187958e-07 0)
(0.000148773912638 -4.45993327072e-07 0)
(0.00014908413533 -3.91058046775e-07 0)
(0.000149358656153 -3.41689907638e-07 0)
(0.000149600186886 -2.97450489195e-07 0)
(0.00014981151215 -2.5783099733e-07 0)
(0.000149995310924 -2.22312786183e-07 0)
(0.000150154065762 -1.90393602242e-07 0)
(0.000150290018751 -1.61597710937e-07 0)
(0.000150405152567 -1.35478207601e-07 0)
(0.000150501184726 -1.11615507009e-07 0)
(0.000150579568386 -8.96139890018e-08 0)
(0.000150641495947 -6.90977987267e-08 0)
(0.000150687903223 -4.97062923581e-08 0)
(0.000150719472885 -3.10893410354e-08 0)
(0.000150736636373 -1.29025664718e-08 0)
(0.000150739573756 5.1975040904e-09 0)
(0.00015072821119 2.35584226293e-08 0)
(0.000150702215718 4.25370339088e-08 0)
(0.00015066098721 6.25050293485e-08 0)
(0.000150603647274 8.38549689575e-08 0)
(0.000150529025048 1.07006918756e-07 0)
(0.000150435639839 1.32415853464e-07 0)
(0.000150321680799 1.60579981559e-07 0)
(0.000150184984141 1.92050094672e-07 0)
(0.000150023009076 2.27439948212e-07 0)
(0.000149832814912 2.67437409838e-07 0)
(0.000149611044119 3.12815529053e-07 0)
(0.000149353920843 3.64441348176e-07 0)
(0.000149057283253 4.23277126532e-07 0)
(0.000148716686513 4.90360921321e-07 0)
(0.000148327647434 5.66733550923e-07 0)
(0.000147886177777 6.5322838615e-07 0)
(0.00014738986587 7.49907451756e-07 0)
(0.000146840079958 8.5461336809e-07 0)
(0.000146245936225 9.59291787285e-07 0)
(0.0001456321367 1.04122706278e-06 0)
(0.000145048432636 1.04205675789e-06 0)
(0.000144590200856 8.27204426267e-07 0)
(0.000144368848886 1.11149131459e-07 0)
(0.000144541076819 -1.24664356722e-06 0)
(0.000204679288623 2.40556347487e-06 0)
(0.000204327544815 6.7248983175e-07 0)
(0.000204251046182 -4.60862878563e-07 0)
(0.000204402504426 -1.00134092699e-06 0)
(0.000204731584021 -1.20991103203e-06 0)
(0.000205162308981 -1.24520812652e-06 0)
(0.000205639325902 -1.19639677367e-06 0)
(0.000206124322153 -1.10984823941e-06 0)
(0.000206594165252 -1.00931775883e-06 0)
(0.000207035814185 -9.06672949401e-07 0)
(0.000207442786436 -8.07682447459e-07 0)
(0.000207812579207 -7.14964822658e-07 0)
(0.000208145039842 -6.29507358468e-07 0)
(0.00020844133945 -5.51448009535e-07 0)
(0.000208703344574 -4.80485228264e-07 0)
(0.000208933232329 -4.16095692225e-07 0)
(0.000209133255469 -3.57651295783e-07 0)
(0.000209305598846 -3.04481944671e-07 0)
(0.000209452291896 -2.559085418e-07 0)
(0.000209575155518 -2.1125924975e-07 0)
(0.000209675770007 -1.69876204583e-07 0)
(0.000209755455717 -1.31116705558e-07 0)
(0.000209815261214 -9.43511520045e-08 0)
(0.000209855955523 -5.89590197644e-08 0)
(0.000209878022316 -2.43236012124e-08 0)
(0.000209881654627 1.01740845737e-08 0)
(0.000209866749195 4.51620081272e-08 0)
(0.000209832899945 8.12843649905e-08 0)
(0.000209779390363 1.19209284789e-07 0)
(0.000209705184872 1.59636971616e-07 0)
(0.000209608919632 2.03308197719e-07 0)
(0.000209488893654 2.51012966445e-07 0)
(0.000209343061872 3.03598940537e-07 0)
(0.000209169032869 3.61978816009e-07 0)
(0.000208964075833 4.27135043075e-07 0)
(0.000208725144246 5.00118846341e-07 0)
(0.000208448928868 5.82037752506e-07 0)
(0.000208131961057 6.74020559469e-07 0)
(0.000207770801884 7.77138240841e-07 0)
(0.000207362377454 8.92238268166e-07 0)
(0.000206904560547 1.01960608399e-06 0)
(0.000206397168723 1.15827812641e-06 0)
(0.000205843624467 1.30463919415e-06 0)
(0.000205253691807 1.44957749152e-06 0)
(0.000204647481145 1.57267287901e-06 0)
(0.000204061423524 1.63094356999e-06 0)
(0.000203552174555 1.53688632139e-06 0)
(0.000203201426222 1.12680432631e-06 0)
(0.000203074677825 1.2040605522e-07 0)
(0.000203223225324 -1.52780303033e-06 0)
(0.000261238703934 2.77533511813e-06 0)
(0.000260956541089 8.81798094601e-07 0)
(0.000260844753217 -4.66994608953e-07 0)
(0.000260911542799 -1.20567360342e-06 0)
(0.000261143706712 -1.55575510838e-06 0)
(0.000261492008646 -1.67446501885e-06 0)
(0.00026191045458 -1.66335693089e-06 0)
(0.000262361177677 -1.58286032948e-06 0)
(0.000262817245348 -1.46822810343e-06 0)
(0.000263260718882 -1.33957497759e-06 0)
(0.00026368049728 -1.2081983142e-06 0)
(0.000264070252657 -1.08026756478e-06 0)
(0.000264426869602 -9.58975724947e-07 0)
(0.000264749317406 -8.45780681068e-07 0)
(0.00026503787241 -7.41126508179e-07 0)
(0.000265293589547 -6.44865245049e-07 0)
(0.000265517946825 -5.56505684474e-07 0)
(0.000265712606729 -4.75360899929e-07 0)
(0.000265879256133 -4.00635712534e-07 0)
(0.000266019498706 -3.3147800472e-07 0)
(0.000266134782383 -2.6700795166e-07 0)
(0.000266226350205 -2.06333571042e-07 0)
(0.000266295206683 -1.48557678567e-07 0)
(0.000266342094412 -9.27793595876e-08 0)
(0.000266367477395 -3.80918903514e-08 0)
(0.000266371528752 1.64216579004e-08 0)
(0.000266354121366 7.1694332146e-08 0)
(0.000266314820698 1.286821428e-07 0)
(0.000266252879598 1.88371363545e-07 0)
(0.000266167235533 2.51785776131e-07 0)
(0.000266056511332 3.19993199651e-07 0)
(0.000265919021453 3.94110312348e-07 0)
(0.000265752786978 4.75304172501e-07 0)
(0.000265555564396 5.64787790058e-07 0)
(0.000265324895904 6.63805290066e-07 0)
(0.000265058193087 7.73599064667e-07 0)
(0.000264752872137 8.95345823004e-07 0)
(0.000264406568389 1.03003872731e-06 0)
(0.000264017472269 1.178275357e-06 0)
(0.000263584849975 1.33987978606e-06 0)
(0.000263109839125 1.5132293596e-06 0)
(0.000262596644848 1.69405471131e-06 0)
(0.000262054265067 1.87329326282e-06 0)
(0.000261498876304 2.03329123187e-06 0)
(0.000260956592713 2.14109837999e-06 0)
(0.000260466250993 2.13738762751e-06 0)
(0.000260078015551 1.91831358901e-06 0)
(0.000259848381981 1.31649705554e-06 0)
(0.000259802740868 8.83700152197e-08 0)
(0.000259931920761 -1.73254430124e-06 0)
(0.000315484336368 3.04463796773e-06 0)
(0.000315265350815 1.07425905946e-06 0)
(0.000315138231426 -4.17898965768e-07 0)
(0.000315139245706 -1.31824869858e-06 0)
(0.000315278827675 -1.80445109591e-06 0)
(0.000315531818842 -2.01944690194e-06 0)
(0.000315865634953 -2.06607162875e-06 0)
(0.000316248329455 -2.0121686982e-06 0)
(0.000316653807904 -1.90133377067e-06 0)
(0.000317062431475 -1.76090138653e-06 0)
(0.000317460389823 -1.60774170318e-06 0)
(0.000317838505899 -1.45206223444e-06 0)
(0.000318191076975 -1.29986388449e-06 0)
(0.000318514892986 -1.15449376909e-06 0)
(0.000318808473713 -1.01762413073e-06 0)
(0.000319071498116 -8.89868732992e-07 0)
(0.000319304387585 -7.71172248589e-07 0)
(0.000319508005316 -6.61057008925e-07 0)
(0.00031968344095 -5.5877967433e-07 0)
(0.000319831856769 -4.63430531103e-07 0)
(0.000319954377972 -3.73995903506e-07 0)
(0.000320052014373 -2.8939661848e-07 0)
(0.000320125604495 -2.0851077792e-07 0)
(0.00032017577568 -1.30186174444e-07 0)
(0.000320202915765 -5.32458673619e-08 0)
(0.000320207153363 2.35107016008e-08 0)
(0.000320188344864 1.01309349962e-07 0)
(0.000320146067236 1.81404222962e-07 0)
(0.00032007961652 2.65081098962e-07 0)
(0.000319988012765 3.5365966164e-07 0)
(0.000319870013118 4.48493156264e-07 0)
(0.000319724135967 5.50963228605e-07 0)
(0.000319548700604 6.62466672287e-07 0)
(0.000319341889039 7.84389036841e-07 0)
(0.000319101839573 9.18057138541e-07 0)
(0.00031882678592 1.06465777864e-06 0)
(0.000318515261421 1.22510217565e-06 0)
(0.000318166395613 1.39980279752e-06 0)
(0.000317780339993 1.58830806003e-06 0)
(0.000317358870479 1.78870562595e-06 0)
(0.000316906220416 1.99664798057e-06 0)
(0.000316430193478 2.2037659702e-06 0)
(0.000315943549093 2.3950959891e-06 0)
(0.000315465548556 2.54498844472e-06 0)
(0.000315023105054 2.61070035211e-06 0)
(0.000314650734008 2.52319215954e-06 0)
(0.000314386010958 2.17437869945e-06 0)
(0.000314260540849 1.40873352904e-06 0)
(0.000314272094753 2.7475087878e-08 0)
(0.000314380570095 -1.87994524662e-06 0)
(0.000367278470194 3.23038145972e-06 0)
(0.000367117338102 1.24115235527e-06 0)
(0.000366990045133 -3.3561723515e-07 0)
(0.00036694589252 -1.35696489202e-06 0)
(0.000367008514204 -1.96111575972e-06 0)
(0.000367171202419 -2.27166004606e-06 0)
(0.000367414558821 -2.38557614222e-06 0)
(0.000367714859119 -2.37235745155e-06 0)
(0.000368049832738 -2.28023414595e-06 0)
(0.000368400807456 -2.14176434758e-06 0)
(0.00036875328163 -1.97853072387e-06 0)
(0.000369096596797 -1.80457666625e-06 0)
(0.000369423305202 -1.62884293338e-06 0)
(0.000369728480041 -1.45683861738e-06 0)
(0.000370009092624 -1.29177274821e-06 0)
(0.000370263493794 -1.13531409452e-06 0)
(0.000370491001985 -9.88099964551e-07 0)
(0.000370691584732 -8.50076641827e-07 0)
(0.00037086561661 -7.20727192763e-07 0)
(0.000371013697222 -5.99223785732e-07 0)
(0.000371136515377 -4.84529226976e-07 0)
(0.000371234748352 -3.75464171163e-07 0)
(0.000371308987682 -2.70751034827e-07 0)
(0.000371359685096 -1.69042095401e-07 0)
(0.000371387113967 -6.8936939927e-08 0)
(0.000371391343051 3.10070582657e-08 0)
(0.000371372220523 1.32268467423e-07 0)
(0.000371329367309 2.36357457882e-07 0)
(0.000371262179717 3.44811298718e-07 0)
(0.000371169842352 4.59187449969e-07 0)
(0.000371051353393 5.81051528645e-07 0)
(0.000370905565637 7.11956532421e-07 0)
(0.000370731248311 8.53408189944e-07 0)
(0.00037052717673 1.00680893129e-06 0)
(0.000370292259475 1.17336923316e-06 0)
(0.000370025716022 1.35396933488e-06 0)
(0.00036972732155 1.54894538458e-06 0)
(0.000369397739619 1.75776039475e-06 0)
(0.000369038966182 1.9784995013e-06 0)
(0.000368654907279 2.2070980541e-06 0)
(0.000368252100577 2.43616584778e-06 0)
(0.000367840558136 2.6532117826e-06 0)
(0.000367434622386 2.83799595754e-06 0)
(0.000367053586466 2.95869657833e-06 0)
(0.000366721475646 2.96652825034e-06 0)
(0.000366465145004 2.789008061e-06 0)
(0.000366308624498 2.32217845809e-06 0)
(0.00036626349644 1.42935337367e-06 0)
(0.000366310952028 -4.63383803455e-08 0)
(0.000366396893892 -1.9795301937e-06 0)
(0.000416532573695 3.34562645245e-06 0)
(0.000416424248851 1.37789214112e-06 0)
(0.00041630685896 -2.37224280059e-07 0)
(0.00041623481799 -1.34096630728e-06 0)
(0.000416238006634 -2.03916729761e-06 0)
(0.000416322638912 -2.43554564118e-06 0)
(0.000416480431689 -2.6175320948e-06 0)
(0.000416696087589 -2.65217854833e-06 0)
(0.000416952564306 -2.58906430518e-06 0)
(0.000417233895429 -2.4637457826e-06 0)
(0.000417526502673 -2.30119663297e-06 0)
(0.000417819547754 -2.11862052077e-06 0)
(0.000418104796655 -1.92763460997e-06 0)
(0.000418376263596 -1.73588594702e-06 0)
(0.000418629792732 -1.54822132715e-06 0)
(0.000418862655004 -1.36752046922e-06 0)
(0.000419073194033 -1.19528427987e-06 0)
(0.00041926053064 -1.03204800195e-06 0)
(0.000419424324078 -8.77670520146e-07 0)
(0.000419564583151 -7.31536520212e-07 0)
(0.000419681519135 -5.92697448765e-07 0)
(0.000419775432751 -4.59969519876e-07 0)
(0.000419846628526 -3.32001618958e-07 0)
(0.00041989535116 -2.07322225863e-07 0)
(0.000419921739744 -8.43719379155e-08 0)
(0.000419925796908 3.84735032892e-08 0)
(0.000419907370972 1.62885836028e-07 0)
(0.00041986615024 2.90569287019e-07 0)
(0.000419801669507 4.23244882558e-07 0)
(0.000419713329873 5.62630776798e-07 0)
(0.000419600434016 7.10414699317e-07 0)
(0.000419462240323 8.68213514262e-07 0)
(0.000419298040638 1.03751307803e-06 0)
(0.000419107268008 1.2195788584e-06 0)
(0.000418889642553 1.4153236831e-06 0)
(0.000418645365308 1.62511300506e-06 0)
(0.000418375371148 1.84847936268e-06 0)
(0.000418081651726 2.08370532744e-06 0)
(0.000417767655824 2.32721698001e-06 0)
(0.000417438764229 2.57270719344e-06 0)
(0.000417102812672 2.80987955994e-06 0)
(0.000416770590975 3.02267595155e-06 0)
(0.000416456160921 3.18682802473e-06 0)
(0.000416176705011 3.26661371577e-06 0)
(0.000415951396213 3.21076672577e-06 0)
(0.000415798587056 2.94807832115e-06 0)
(0.000415730345363 2.38341130561e-06 0)
(0.000415743781868 1.40054234941e-06 0)
(0.000415811364577 -1.22192473624e-07 0)
(0.00041587409615 -2.03864727865e-06 0)
(0.00046318689643 3.40042949988e-06 0)
(0.000463126531457 1.48253970935e-06 0)
(0.000463025115784 -1.35085948815e-07 0)
(0.00046293822973 -1.28724980215e-06 0)
(0.000462897738456 -2.05435807676e-06 0)
(0.000462918331469 -2.52193743023e-06 0)
(0.000463000310912 -2.76655757278e-06 0)
(0.000463135918811 -2.85036045207e-06 0)
(0.000463313627135 -2.82180160323e-06 0)
(0.000463521055186 -2.71744196792e-06 0)
(0.000463746618015 -2.56423384994e-06 0)
(0.000463980318547 -2.38163827862e-06 0)
(0.000464213999618 -2.183430539e-06 0)
(0.000464441291591 -1.97914178086e-06 0)
(0.000464657409933 -1.77517159292e-06 0)
(0.000464858895995 -1.57562608724e-06 0)
(0.000465043353048 -1.38293987455e-06 0)
(0.00046520920362 -1.19833303593e-06 0)
(0.000465355478908 -1.02214470166e-06 0)
(0.000465481642694 -8.54075498987e-07 0)
(0.000465587447964 -6.93363253516e-07 0)
(0.000465672822696 -5.389101049e-07 0)
(0.000465737780848 -3.89374501863e-07 0)
(0.000465782354851 -2.4323808482e-07 0)
(0.000465806546536 -9.88550175439e-08 0)
(0.000465810294159 4.55103686319e-08 0)
(0.000465793454023 1.91652835242e-07 0)
(0.000465755795996 3.41398215524e-07 0)
(0.000465697013118 4.9657410416e-07 0)
(0.000465616746305 6.58974997419e-07 0)
(0.000465514626127 8.30316939659e-07 0)
(0.000465390334563 1.01217551438e-06 0)
(0.000465243690627 1.20589912473e-06 0)
(0.000465074764677 1.41248674716e-06 0)
(0.000464884026898 1.63241539927e-06 0)
(0.000464672535548 1.86539711991e-06 0)
(0.000464442169401 2.11003787596e-06 0)
(0.000464195905241 2.36336120199e-06 0)
(0.000463938133349 2.62014747506e-06 0)
(0.000463674988582 2.87202655922e-06 0)
(0.000463414647322 3.10624940753e-06 0)
(0.000463167495241 3.30406169863e-06 0)
(0.000462946001855 3.43861687788e-06 0)
(0.000462764037903 3.47244662923e-06 0)
(0.000462635273855 3.35461616763e-06 0)
(0.000462570134785 3.01820543521e-06 0)
(0.000462571164612 2.37888361419e-06 0)
(0.000462625745706 1.33971611018e-06 0)
(0.000462702659683 -1.92923563992e-07 0)
(0.000462742570907 -2.06282795794e-06 0)
(0.000507199486048 3.40288673647e-06 0)
(0.000507182485755 1.55507952424e-06 0)
(0.000507100292494 -3.73915392602e-08 0)
(0.000507007839709 -1.20918810643e-06 0)
(0.000506936542509 -2.02122207997e-06 0)
(0.000506906319732 -2.54332813769e-06 0)
(0.000506923723452 -2.84131609793e-06 0)
(0.000506987233468 -2.97120279074e-06 0)
(0.000507090468388 -2.97867995254e-06 0)
(0.000507224878951 -2.8997459327e-06 0)
(0.000507381446094 -2.76205528327e-06 0)
(0.000507551699815 -2.58638783699e-06 0)
(0.000507728229231 -2.38804136561e-06 0)
(0.00050790486775 -2.17803480241e-06 0)
(0.000508076682661 -1.96409869534e-06 0)
(0.000508239860118 -1.75146350522e-06 0)
(0.000508391543502 -1.54347352949e-06 0)
(0.00050852966007 -1.34205783795e-06 0)
(0.000508652755323 -1.14808782256e-06 0)
(0.000508759844738 -9.61646754124e-07 0)
(0.000508850286694 -7.82232105756e-07 0)
(0.000508923677144 -6.08907123142e-07 0)
(0.00050897976501 -4.40414571056e-07 0)
(0.000509018386597 -2.75262750435e-07 0)
(0.000509039417307 -1.11791777023e-07 0)
(0.000509042739203 5.17734187433e-08 0)
(0.000509028223444 2.17277906942e-07 0)
(0.00050899572719 3.86594473796e-07 0)
(0.000508945105188 5.61579470373e-07 0)
(0.00050887623693 7.44021753138e-07 0)
(0.000508789070893 9.3557898335e-07 0)
(0.000508683687983 1.13769434778e-06 0)
(0.000508560386793 1.3514849856e-06 0)
(0.000508419793433 1.57759089263e-06 0)
(0.000508262998409 1.81596969977e-06 0)
(0.000508091721661 2.06561835607e-06 0)
(0.000507908503948 2.32419733765e-06 0)
(0.000507716917033 2.58752677893e-06 0)
(0.00050752177511 2.84891761282e-06 0)
(0.00050732931334 3.09829630595e-06 0)
(0.00050714727398 3.3210823728e-06 0)
(0.000506984802629 3.49679190182e-06 0)
(0.000506852010876 3.59737392055e-06 0)
(0.000506758993549 3.58537680958e-06 0)
(0.000506714086959 3.4121492479e-06 0)
(0.000506720985611 3.01668121693e-06 0)
(0.000506775135315 2.3257419217e-06 0)
(0.000506857771415 1.25934049188e-06 0)
(0.000506936985619 -2.54432705666e-07 0)
(0.000506955184668 -2.05665613903e-06 0)
(0.000548539777961 3.35965125532e-06 0)
(0.000548561857076 1.5966300381e-06 0)
(0.000548500259038 5.07204353667e-08 0)
(0.000548408563661 -1.11679416964e-06 0)
(0.000548316459431 -1.95205290505e-06 0)
(0.000548246859635 -2.51179635135e-06 0)
(0.00054821065708 -2.85190613687e-06 0)
(0.000548211233957 -3.02190900321e-06 0)
(0.000548246679461 -3.06378650434e-06 0)
(0.000548312120908 -3.01186345606e-06 0)
(0.000548401298959 -2.89346160824e-06 0)
(0.000548507653708 -2.7298262247e-06 0)
(0.000548624975674 -2.53713032499e-06 0)
(0.000548747753472 -2.32742207689e-06 0)
(0.000548871314209 -2.10945922163e-06 0)
(0.00054899183491 -1.88941121548e-06 0)
(0.000549106279926 -1.67143280231e-06 0)
(0.000549212301585 -1.45812292186e-06 0)
(0.000549308127847 -1.25088659509e-06 0)
(0.000549392451228 -1.05021743989e-06 0)
(0.000549464326989 -8.55916816153e-07 0)
(0.000549523084581 -6.67263338972e-07 0)
(0.000549568253928 -4.83144239573e-07 0)
(0.000549599506847 -3.02158063147e-07 0)
(0.000549616613265 -1.22696580414e-07 0)
(0.000549619411756 5.6987435252e-08 0)
(0.000549607794009 2.38720724468e-07 0)
(0.000549581703134 4.24352979005e-07 0)
(0.000549541146052 6.15697910017e-07 0)
(0.000549486220601 8.14466399074e-07 0)
(0.000549417158321 1.02218552984e-06 0)
(0.000549334384099 1.24009623976e-06 0)
(0.0005492385938 1.46902079303e-06 0)
(0.000549130850599 1.70918925832e-06 0)
(0.000549012699526 1.96001158936e-06 0)
(0.000548886297485 2.21977890911e-06 0)
(0.000548754551991 2.48527432215e-06 0)
(0.0005486212553 2.75127064778e-06 0)
(0.000548491190422 3.00989096408e-06 0)
(0.000548370170433 3.24980991196e-06 0)
(0.000548264952083 3.45528254436e-06 0)
(0.000548182936909 3.60500988692e-06 0)
(0.00054813154834 3.67088991846e-06 0)
(0.000548117130061 3.61678515134e-06 0)
(0.000548143274305 3.39752346354e-06 0)
(0.00054820828788 2.9586422395e-06 0)
(0.000548302578919 2.2373799308e-06 0)
(0.000548403756411 1.16806570719e-06 0)
(0.000548480876659 -3.04616634358e-07 0)
(0.000548478868176 -2.02398465054e-06 0)
(0.000587184813556 3.27631004637e-06 0)
(0.000587242016184 1.60895717827e-06 0)
(0.000587201180803 1.26276163317e-07 0)
(0.000587114375021 -1.01728353652e-06 0)
(0.000587008983732 -1.85671805837e-06 0)
(0.000586909440622 -2.43804200607e-06 0)
(0.000586829522614 -2.8083412626e-06 0)
(0.000586776324587 -3.01080634178e-06 0)
(0.000586751640386 -3.08327461995e-06 0)
(0.000586753903655 -3.05768728919e-06 0)
(0.00058677955497 -2.96026245089e-06 0)
(0.000586824091092 -2.81200172123e-06 0)
(0.000586882766318 -2.62936191477e-06 0)
(0.000586951034477 -2.42496040231e-06 0)
(0.000587024794939 -2.20824462783e-06 0)
(0.000587100503999 -1.98608931863e-06 0)
(0.000587175198398 -1.76330857397e-06 0)
(0.000587246465953 -1.54308310486e-06 0)
(0.000587312387736 -1.32730991256e-06 0)
(0.0005873714682 -1.11688466454e-06 0)
(0.000587422563733 -9.11927732938e-07 0)
(0.000587464816054 -7.11964375216e-07 0)
(0.000587497594086 -5.16068538299e-07 0)
(0.000587520446285 -3.229786373e-07 0)
(0.000587533064329 -1.31192631557e-07 0)
(0.000587535258612 6.09511251504e-08 0)
(0.000587526945709 2.55201376363e-07 0)
(0.000587508148022 4.53324229575e-07 0)
(0.000587479005842 6.57030679075e-07 0)
(0.000587439802201 8.67895616056e-07 0)
(0.000587391000855 1.08726200447e-06 0)
(0.000587333297648 1.31612305172e-06 0)
(0.000587267685008 1.55497401977e-06 0)
(0.000587195528394 1.80362388457e-06 0)
(0.000587118651843 2.06095538379e-06 0)
(0.000587039426947 2.32462033939e-06 0)
(0.000586960855291 2.59065585599e-06 0)
(0.000586886627937 2.85300678531e-06 0)
(0.000586821136558 3.10294188741e-06 0)
(0.000586769398598 3.32835736907e-06 0)
(0.000586736844483 3.51297445955e-06 0)
(0.000586728896817 3.63546225998e-06 0)
(0.00058675026394 3.66855437925e-06 0)
(0.000586803842792 3.57829479026e-06 0)
(0.000586889229713 3.32360753602e-06 0)
(0.000587000591484 2.85659139455e-06 0)
(0.000587124908574 2.1239021646e-06 0)
(0.000587237854146 1.07171737743e-06 0)
(0.000587310270202 -3.42666138519e-07 0)
(0.000587289736923 -1.9681175023e-06 0)
(0.000623116893096 3.1576382315e-06 0)
(0.000623205583392 1.59415444368e-06 0)
(0.000623184921895 1.87779626497e-07 0)
(0.000623105557733 -9.15707122644e-07 0)
(0.000622992400867 -1.74290059503e-06 0)
(0.000622870469656 -2.33111224646e-06 0)
(0.000622755363579 -2.71982002814e-06 0)
(0.000622656908353 -2.94631314358e-06 0)
(0.000622579867759 -3.04419697571e-06 0)
(0.000622525523435 -3.0426342297e-06 0)
(0.000622492806434 -2.96620989435e-06 0)
(0.000622479250957 -2.83513318287e-06 0)
(0.000622481683756 -2.66564356834e-06 0)
(0.000622496706242 -2.47050537951e-06 0)
(0.000622521004906 -2.25952079667e-06 0)
(0.000622551534367 -2.04001752991e-06 0)
(0.000622585609533 -1.81728866615e-06 0)
(0.000622620936832 -1.59497553525e-06 0)
(0.000622655607099 -1.37539287438e-06 0)
(0.000622688066573 -1.15980024991e-06 0)
(0.000622717077488 -9.48626042894e-07 0)
(0.000622741675967 -7.41651177212e-07 0)
(0.000622761132289 -5.38159841646e-07 0)
(0.000622774916659 -3.37064126375e-07 0)
(0.000622782672443 -1.37009017812e-07 0)
(0.000622784198009 6.3536247273e-08 0)
(0.000622779437865 2.6619481503e-07 0)
(0.000622768483505 4.72601352841e-07 0)
(0.000622751584219 6.84318207991e-07 0)
(0.000622729167925 9.0274288286e-07 0)
(0.000622701871855 1.12900069576e-06 0)
(0.000622670582472 1.36381589573e-06 0)
(0.000622636483228 1.60735370698e-06 0)
(0.000622601107535 1.85902493865e-06 0)
(0.000622566392371 2.11724400036e-06 0)
(0.00062253472508 2.37913070069e-06 0)
(0.000622508971784 2.64014651933e-06 0)
(0.000622492470261 2.8936578066e-06 0)
(0.000622488962939 3.13042263607e-06 0)
(0.000622502436809 3.33800636572e-06 0)
(0.000622536828313 3.50014503939e-06 0)
(0.000622595541062 3.59609871358e-06 0)
(0.000622680728693 3.6000678332e-06 0)
(0.000622792275697 3.48079579819e-06 0)
(0.000622926535535 3.2015168215e-06 0)
(0.000623074590257 2.72055074929e-06 0)
(0.000623221186409 1.99279548904e-06 0)
(0.000623341150606 9.74128114141e-07 0)
(0.000623407436375 -3.68566062803e-07 0)
(0.000623370105001 -1.89191597543e-06 0)
(0.000656322076776 3.0077854599e-06 0)
(0.000656438912466 1.55445506352e-06 0)
(0.000656437371655 2.34731741474e-07 0)
(0.000656366878276 -8.15488285649e-07 0)
(0.000656249920706 -1.61645268774e-06 0)
(0.000656111532797 -2.19843621719e-06 0)
(0.000655968389529 -2.5944256824e-06 0)
(0.000655832275276 -2.8363686307e-06 0)
(0.000655710277014 -2.95376525043e-06 0)
(0.000655606056277 -2.97283368353e-06 0)
(0.000655520751554 -2.91619510016e-06 0)
(0.000655453810319 -2.80286823112e-06 0)
(0.000655403628471 -2.6484751827e-06 0)
(0.000655368033669 -2.46556361949e-06 0)
(0.000655344626689 -2.26398171637e-06 0)
(0.000655331010289 -2.05126164543e-06 0)
(0.00065532493174 -1.8329847435e-06 0)
(0.000655324362834 -1.61311359648e-06 0)
(0.000655327536612 -1.39428475866e-06 0)
(0.000655332955906 -1.1780612205e-06 0)
(0.000655339384923 -9.65147013495e-07 0)
(0.00065534583202 -7.5556814292e-07 0)
(0.000655351529374 -5.48824910907e-07 0)
(0.000655355913463 -3.44021008745e-07 0)
(0.000655358608969 -1.3997477857e-07 0)
(0.000655359417776 6.46820465817e-08 0)
(0.000655358314127 2.71412917197e-07 0)
(0.000655355446523 4.81687191418e-07 0)
(0.00065535114657 6.96887781746e-07 0)
(0.0006553459446 9.18210329079e-07 0)
(0.00065534059145 1.14654821482e-06 0)
(0.000655336085101 1.3823573641e-06 0)
(0.000655333699951 1.62549438804e-06 0)
(0.000655335015123 1.87502131129e-06 0)
(0.000655341936237 2.12897007215e-06 0)
(0.000655356702417 2.38406046507e-06 0)
(0.000655381866761 2.63536664085e-06 0)
(0.000655420234032 2.87593026576e-06 0)
(0.000655474734179 3.09632382192e-06 0)
(0.000655548204524 3.28417635118e-06 0)
(0.000655643049339 3.42368719771e-06 0)
(0.000655760740922 3.4951727097e-06 0)
(0.000655901138224 3.47471455344e-06 0)
(0.000656061581964 3.33401328849e-06 0)
(0.000656235863561 3.04056917777e-06 0)
(0.000656412823947 2.55841051199e-06 0)
(0.000656575828022 1.84953874045e-06 0)
(0.000656699529275 8.77742364524e-07 0)
(0.000656759036632 -3.82778085799e-07 0)
(0.000656706602771 -1.79788273171e-06 0)
(0.000686789195079 2.8304136341e-06 0)
(0.000686931093506 1.49212403162e-06 0)
(0.000686947341761 2.67299012589e-07 0)
(0.000686886355573 -7.18848021673e-07 0)
(0.000686768371672 -1.48175315055e-06 0)
(0.000686618113255 -2.04599849144e-06 0)
(0.000686452821231 -2.43906999472e-06 0)
(0.000686285651454 -2.68816237873e-06 0)
(0.000686125473812 -2.81891670828e-06 0)
(0.000685977894715 -2.85459517762e-06 0)
(0.000685845953919 -2.8156764445e-06 0)
(0.000685730829678 -2.71971915634e-06 0)
(0.000685632408687 -2.58142504845e-06 0)
(0.000685549745416 -2.41282735058e-06 0)
(0.000685481409622 -2.22355068069e-06 0)
(0.00068542573968 -2.02110169389e-06 0)
(0.000685381018788 -1.81116304174e-06 0)
(0.000685345591584 -1.59787330056e-06 0)
(0.000685317936534 -1.38408321501e-06 0)
(0.000685296706901 -1.17158401042e-06 0)
(0.000685280750495 -9.61307153285e-07 0)
(0.000685269116001 -7.53497268172e-07 0)
(0.000685261051703 -5.47861315732e-07 0)