/*--------------------------------*- C++ -*----------------------------------*\
| =========                 |                                                 |
| \\      /  F ield         | OpenFOAM: The Open Source CFD Toolbox           |
|  \\    /   O peration     | Version:  2.4.0                                 |
|   \\  /    A nd           | Web:      www.OpenFOAM.org                      |
|    \\/     M anipulation  |                                                 |
\*---------------------------------------------------------------------------*/
FoamFile
{
    version     2.0;
    format      ascii;
    class       volScalarField;
    location    "0.4";
    object      rho;
}
// * * * * * * * * * * * * * * * * * * * * * * * * * * * * * * * * * * * * * //

dimensions      [1 -3 0 0 0 0 0];

internalField   nonuniform List<scalar> 
100
(
4.45112964992e+107
-5.51492975348e+102
-7.29254179836e+101
4.97888415829e+96
2.2780049919e+95
-1.53803187216e+90
-4.99786767495e+88
3.88348815666e+83
-2.72310817159e+82
-7.16898535833e+87
-6.5641316796e+101
-3.9635768025e+101
2.66820481822e+96
1.74717343125e+95
-1.44605076367e+90
-5.5978222661e+88
5.01836745944e+83
1.55801288023e+82
1.3304611419e+81
-2.50300912645e+82
-2.32067557821e+100
4.74272424875e+95
6.0945867168e+94
-7.07683255953e+89
-3.91222266203e+88
4.46261671614e+83
1.65166955936e+82
-2.43613163487e+77
7.49089682314e+75
1.84224783515e+81
5.64721492004e+94
2.83160406605e+94
-3.25333894982e+89
-2.40481868144e+88
3.00283274432e+83
1.33883955441e+82
-2.26079451073e+77
-7.68207161314e+75
-8.53490623249e+74
1.45438740653e+75
1.62139033188e+93
-6.04413212052e+88
-7.48798692718e+87
1.2709656441e+83
7.5799356216e+81
-1.52464325371e+77
-6.19864993798e+75
1.37893186582e+71
3.22262105895e+69
-4.29772466022e+74
-6.08705690952e+87
-2.88459934443e+87
4.7946944518e+82
3.74872756506e+81
-8.17914879086e+76
-4.01005896894e+75
9.64666038887e+70
3.50901694476e+69
-2.61658699719e+69
8.46703780154e+69
-1.6136587009e+86
8.93039389384e+81
1.08868664991e+81
-3.14128654579e+76
-1.98066038675e+75
5.47336336156e+70
2.35419225369e+69
-9.12753904783e+64
-6.96855318374e+65
-5.80928708614e+68
8.2013203282e+80
3.62274194924e+80
-1.03500136166e+76
-8.44970758612e+74
2.5415295505e+70
1.30516502008e+69
-5.6332033462e+64
-2.18488668834e+63
1.54284414116e+63
-2.22682046272e+65
1.97821112468e+79
-1.91111762375e+75
-2.30410958902e+74
8.98012419985e+69
5.78141514468e+68
-2.81997330623e+64
-1.27642464335e+63
6.51623635607e+58
-4.96337150387e+59
1.35540011593e+63
-1.65648594634e+74
-6.73763657436e+73
2.66471271567e+69
2.12229850392e+68
-1.14534047684e+64
-5.90266169191e+62
3.27175206533e+58
1.35885880709e+57
-1.91519773612e+55
-2.41315069591e+59
)
;

boundaryField
{
    top
    {
        type            bounceBack;
        value           uniform 1;
    }
    bottom
    {
        type            bounceBack;
        value           nonuniform 0();
    }
    left
    {
        type            cyclic;
    }
    right
    {
        type            cyclic;
    }
    frontAndBack
    {
        type            empty;
    }
    procBoundary2to0
    {
        type            processor;
        value           nonuniform List<scalar> 10(-1.57311197222e+102 -7.08595281226e+101 4.81828191393e+96 2.55379357851e+95 -1.5281271123e+90 -4.94315151219e+88 3.38270973967e+83 9.55618662967e+81 -2.5985877736e+81 -1.87798850873e+81);
    }
    procBoundary2to3
    {
        type            processor;
        value           nonuniform List<scalar> 10(-1.08441701428e+82 1.07740735528e+81 6.41331495551e+75 -4.4698498997e+74 7.06031192045e+68 -8.13206009871e+68 -4.87630241054e+63 1.05403975361e+63 -1.67499248805e+59 -6.37581846168e+55);
    }
    procBoundary2to3throughleft
    {
        type            processorCyclic;
        value           nonuniform List<scalar> 10(1.99144778338e+100 -3.18744022753e+98 -1.21040533165e+93 2.19102920589e+91 1.13197927113e+86 -2.16888134637e+84 -1.21896268322e+79 2.60713855348e+77 2.09145444978e+72 -4.74198885404e+70);
    }
}


// ************************************************************************* //
