/*--------------------------------*- C++ -*----------------------------------*\
| =========                 |                                                 |
| \\      /  F ield         | OpenFOAM: The Open Source CFD Toolbox           |
|  \\    /   O peration     | Version:  2.4.0                                 |
|   \\  /    A nd           | Web:      www.OpenFOAM.org                      |
|    \\/     M anipulation  |                                                 |
\*---------------------------------------------------------------------------*/
FoamFile
{
    version     2.0;
    format      ascii;
    class       volVectorField;
    location    "0.4";
    object      U;
}
// * * * * * * * * * * * * * * * * * * * * * * * * * * * * * * * * * * * * * //

dimensions      [0 1 -1 0 0 0 0];

internalField   nonuniform List<vector> 
100
(
(0.0898469607699 1.12191900266 0)
(0.385574049225 1.12559745984 -0)
(0.590623588667 1.05225254317 -0)
(0.875161967108 0.959542793529 0)
(0.916316959673 0.896329218921 0)
(1.04390981459 0.802602669573 -0)
(1.06507629061 0.734613641343 -0)
(1.11712983029 0.644779831628 0)
(-1.40548659452 0.954750464206 -0)
(-0.429560701471 1.01403998906 -0)
(0.153776301714 1.25549840292 -0)
(0.184280681299 1.16618521535 -0)
(0.393329709886 1.18774215736 0)
(0.545491563682 1.11817591306 0)
(0.753199364419 1.05401039619 -0)
(0.842207628512 0.978871354281 -0)
(0.955555120565 0.904385866088 0)
(0.981707477957 0.829155220425 0)
(-0.918309563539 1.01328317598 0)
(-0.926964218932 0.905501536181 -0)
(0.0201300163015 1.16314641216 -0)
(0.172890203362 1.21374433871 0)
(0.51832478716 1.18794673993 0)
(0.616967759353 1.17608253478 -0)
(0.734593181445 1.07737617222 -0)
(0.832708193915 1.02215958442 0)
(0.885356439595 0.933150762071 0)
(0.956561202799 0.876359148261 -0)
(-2.34023114402 0.954508901135 0)
(-0.69270621631 1.19307079227 0)
(0.0244720363946 1.15943914893 0)
(0.0808640429956 1.16329245425 0)
(0.227341615486 1.18138504974 -0)
(0.431526713036 1.12692190455 -0)
(0.580861476679 1.11799417834 0)
(0.701406046462 1.04312361265 0)
(0.804415938873 1.0055896783 -0)
(0.860403915415 0.931093031986 -0)
(-0.771159246521 1.06400270584 -0)
(-0.00947600597843 1.70437354129 0)
(0.00931485546383 1.15771002639 0)
(0.0986524986246 1.18529656816 -0)
(0.390262648662 1.18903243692 -0)
(0.428088724093 1.18391911056 0)
(0.577855710068 1.11757938069 0)
(0.657466296033 1.0978230028 -0)
(0.745949389285 1.02113098772 -0)
(0.803826994248 0.97741052923 0)
(-2.17654387603 9.69934352227 0)
(-0.467509592986 1.18003842528 -0)
(0.00135078182752 1.1713847421 -0)
(0.0565568611026 1.16361969535 -0)
(0.181082747925 1.18418795252 0)
(0.363865825072 1.14655051337 0)
(0.464990134937 1.15167704437 -0)
(0.594749241915 1.09061355303 -0)
(0.677444842564 1.07421402053 0)
(0.753743585715 1.00607690279 0)
(0.0623524715609 0.703813995658 -0)
(-0.402481109287 0.776251600231 0)
(0.00691132222877 1.1583987388 -0)
(0.076016935343 1.18379693016 0)
(0.317806243063 1.18735315411 0)
(0.339609590145 1.18645670722 -0)
(0.481320558965 1.13904736973 -0)
(0.540267372187 1.13319573397 0)
(0.640696562449 1.07060458738 0)
(0.667664135769 1.04848599515 -0)
(-0.221861227227 1.1528337336 -0)
(-1.24865244564 0.445630740739 -0)
(-0.00248718548137 1.16803721361 0)
(0.0502186172429 1.16348407625 0)
(0.166712643767 1.18386405023 -0)
(0.318326977243 1.15532835453 -0)
(0.394036768156 1.16408629193 0)
(0.515895352929 1.11681957897 0)
(0.57926236605 1.11163280498 -0)
(0.663272384411 1.05341373731 -0)
(-0.899017013879 0.814840827668 0)
(-0.0293617657651 1.15884120436 -0)
(0.00626121961995 1.15830633626 0)
(0.066985336399 1.18001560812 -0)
(0.274309679809 1.18429675516 -0)
(0.292458845941 1.18456354243 0)
(0.417117263236 1.14978571751 0)
(0.463605349523 1.14951773645 -0)
(0.56257002724 1.0997178735 -0)
(0.602839329591 1.0934290185 0)
(-0.581790261493 1.13338244752 -0)
(-0.907700256205 0.957601583809 0)
(-0.00302612759832 1.13839600713 -0)
(0.0424592958023 1.16132376215 -0)
(0.132212677907 1.1498970055 0)
(0.255793219762 1.1580073443 0)
(0.300010891091 1.14062149381 -0)
(0.414877197693 1.13702236839 -0)
(0.445872499582 1.11622407771 0)
(0.625034637368 0.937663107624 0)
(-0.421928340906 -14.9652234225 -0)
(-0.289654338967 1.20148942109 -0)
)
;

boundaryField
{
    top
    {
        type            fixedValue;
        value           uniform (0.1 0 0);
    }
    bottom
    {
        type            fixedValue;
        value           nonuniform 0();
    }
    left
    {
        type            cyclic;
    }
    right
    {
        type            cyclic;
    }
    frontAndBack
    {
        type            empty;
    }
    procBoundary2to0
    {
        type            processor;
        value           nonuniform List<vector> 10((1.18843751466 0.875620003257 -0) (0.581984307657 1.12145913845 -0) (0.986249296468 0.97727199189 0) (0.946836851025 0.947371164722 0) (1.0575512671 0.816344034625 -0) (1.06263301004 0.731818844551 -0) (1.13292007929 0.628535697753 0) (1.11361879436 0.579506129706 0) (-0.060022126284 0.215119846752 -0) (-1.05269402656 3.01046421743 -0));
    }
    procBoundary2to3
    {
        type            processor;
        value           nonuniform List<vector> 10((-2.2429194101 1.20648051767 -0) (-0.256099517104 1.83382177159 0) (-0.784598834055 -0.212446893179 0) (-0.0234122418157 1.36700420348 -0) (-1.7598023869 1.6748663706 0) (-1.00744234465 0.355985883378 -0) (-1.54542313255 1.37189973398 -0) (-1.01751645695 0.940614724698 0) (-0.218124142958 1.18090990111 -0) (-0.92783622254 0.973848543007 -0));
    }
    procBoundary2to3throughleft
    {
        type            processorCyclic;
        value           nonuniform List<vector> 10((0.0521994245821 1.12224661129 0) (0.0810317191575 1.16059520098 -0) (0.0401463023017 1.1564986013 -0) (0.0262946981272 1.15901361028 0) (0.0447871718724 1.15402915161 0) (0.0141822963138 1.15922712465 -0) (0.0521031786456 1.15387407874 -0) (0.0115071121203 1.15922136513 0) (0.0566410234434 1.15324159138 0) (0.00980608313666 1.15865486693 -0));
    }
}


// ************************************************************************* //
