/*--------------------------------*- C++ -*----------------------------------*\
| =========                 |                                                 |
| \\      /  F ield         | OpenFOAM: The Open Source CFD Toolbox           |
|  \\    /   O peration     | Version:  2.4.0                                 |
|   \\  /    A nd           | Web:      www.OpenFOAM.org                      |
|    \\/     M anipulation  |                                                 |
\*---------------------------------------------------------------------------*/
FoamFile
{
    version     2.0;
    format      ascii;
    class       volScalarField;
    location    "0.2";
    object      rho;
}
// * * * * * * * * * * * * * * * * * * * * * * * * * * * * * * * * * * * * * //

dimensions      [1 -3 0 0 0 0 0];

internalField   nonuniform List<scalar> 
100
(
0.99999259803
1.00004690255
0.999992973826
0.998701943821
1.01619845784
-3.60494839478
-746.643157673
-2442.84590935
9635.76936665
72686.5082273
1.00001700736
0.999900229276
1.00010333037
1.00295134318
0.988786517545
1.15607443445
7.83005772525
501.028784703
-19487.5806282
-72551.6722711
0.999982599357
1.00011736029
1.00000881497
0.997585514661
1.06578038398
-5.13014722128
-80.9079999365
336.460979208
4557.93978894
-106575.890296
0.999999470737
0.999978297355
1.00012161564
1.00028816969
0.996803490146
1.05902738116
-11.4850628597
-55.7966283449
439.193336187
5486.68813481
1.00000330244
0.999982767515
0.999992225209
1.00064638607
0.997142084142
1.00664173865
1.22170459778
-48.5102219399
-67.6935308467
288.641978139
1.00000052985
0.999995117684
1.0000107741
1.00014888128
0.998903436399
1.00891831023
360.756179682
1492.39717958
-3309.62591762
-1399.44645946
0.999995315044
1.00002972184
1.00001603185
0.998869413791
1.01139055002
-4.15888460017
-158.336080465
2.47583186261
8718.11419783
-33577.1928451
1.00000192887
0.999982947312
1.00003133018
1.00043013081
0.996669388162
1.01446092836
28.3258752711
-1288.90606582
-5876.93752069
46193.0676347
0.999998786135
1.00000709589
1.0000261035
0.999538266465
1.00267428791
1.01718157405
0.98766867584
-18.6515254664
-5202.12046666
-4775.03024416
0.999999827946
0.999999384757
0.999999806299
1.000037083
0.9997607641
1.0011246284
1.0213260933
0.978577353012
1.67711131029
-1171.15008437
)
;

boundaryField
{
    top
    {
        type            bounceBack;
        value           uniform 1;
    }
    bottom
    {
        type            bounceBack;
        value           nonuniform 0();
    }
    left
    {
        type            cyclic;
    }
    right
    {
        type            cyclic;
    }
    frontAndBack
    {
        type            empty;
    }
    procBoundary3to1
    {
        type            processor;
        value           nonuniform List<scalar> 10(1.00000265986 0.999987702672 0.999996911016 1.00032553362 0.998358775776 1.00265844259 1.05877693374 0.930485519848 -2.03381822658 2.34034538109);
    }
    procBoundary3to2
    {
        type            processor;
        value           nonuniform List<scalar> 10(0.999999322855 1.00000115054 0.999999256041 0.999999470221 1.00000015555 0.999999994553 0.999999676636 1.00000024666 0.999999531483 1.00000009325);
    }
    procBoundary3to2throughright
    {
        type            processorCyclic;
        value           nonuniform List<scalar> 10(72.189356148 -1149.6029675 26.6570133548 21.2292824572 1.82472520426 1.77339566699 -22.5907180447 3.68971415085 -1.17691171461 1.85303952474);
    }
}


// ************************************************************************* //
