/*--------------------------------*- C++ -*----------------------------------*\
| =========                 |                                                 |
| \\      /  F ield         | OpenFOAM: The Open Source CFD Toolbox           |
|  \\    /   O peration     | Version:  2.4.0                                 |
|   \\  /    A nd           | Web:      www.OpenFOAM.org                      |
|    \\/     M anipulation  |                                                 |
\*---------------------------------------------------------------------------*/
FoamFile
{
    version     2.0;
    format      ascii;
    class       volVectorField;
    location    "0.2";
    object      U;
}
// * * * * * * * * * * * * * * * * * * * * * * * * * * * * * * * * * * * * * //

dimensions      [0 1 -1 0 0 0 0];

internalField   nonuniform List<vector> 
100
(
(6.19947581344e-06 1.79559109566e-06 0)
(2.0621598857e-06 -3.48469847666e-05 0)
(-0.000198787694444 0.000125670751412 0)
(0.00116958024032 0.000326626610375 0)
(-0.00261971989929 -0.00539715701096 0)
(-1.74524802586 -0.0612466677759 -0)
(-1.11830203196 -0.0741812094969 -0)
(-3.70905690511 -0.569498692886 -0)
(-1.19097238635 -0.0360263524171 0)
(0.54377117675 -0.212333542575 0)
(-1.15295232936e-06 -5.66633046103e-07 0)
(9.12006514977e-06 1.28002138432e-05 0)
(0.000411718007292 -6.2170401235e-05 0)
(-0.00232989813187 -0.000167666034552 0)
(-0.00171129526628 0.00208939123827 0)
(0.00386555525157 -0.0356741533933 0)
(0.986152756265 -0.03544185826 0)
(1.52045605265 0.606213929633 0)
(-1.19427377057 0.740879484424 -0)
(3.17315964773 -3.11291729415 -0)
(6.80764029406e-05 -1.96720704847e-06 0)
(5.02583959656e-05 2.10775125418e-05 0)
(-0.000465546557193 -6.42187841352e-05 0)
(0.00311630790992 -0.00020888628774 0)
(-0.0220531610435 0.00311471184064 0)
(-1.54741510046 0.0137257027067 -0)
(-1.06476898439 0.000785462285679 -0)
(-1.78498406998 0.109985887721 0)
(-1.20158554246 0.484729513308 0)
(-1.05843662349 0.941966820481 -0)
(0.000250964434581 8.39663172718e-07 0)
(0.000261570539511 -2.4789424571e-05 0)
(0.00025261607351 0.000112831695383 0)
(-0.00010935388785 0.000289243661955 0)
(0.00145157468682 -0.00453164907507 0)
(-0.00599895766081 0.0515013822311 0)
(-1.58008424321 0.684517028584 -0)
(3.25700898927 -5.13174004551 -0)
(-0.760211256259 0.605700091313 0)
(-1.28128391118 0.905149368807 0)
(0.00110976308852 2.52737336621e-07 0)
(0.00111559163352 7.59087033623e-07 0)
(0.00118955316501 -1.40011060275e-05 0)
(0.000546735052436 2.93594626467e-05 0)
(0.0014364939725 0.000419732893694 0)
(0.0128846638821 -0.00294871104694 0)
(-0.166920661179 0.0124188983205 0)
(-1.29037165264 1.91712495974 -0)
(-3.43723627189 2.64473965912 -0)
(-3.01138230318 0.607885462438 0)
(0.00432457334286 -4.96318915268e-07 0)
(0.00432466670964 8.89958801319e-06 0)
(0.00434217723184 -3.85653319383e-05 0)
(0.00420461071871 -0.000110893540484 0)
(0.00437509854486 0.00206130111801 0)
(0.00675803641724 -0.0119944774269 0)
(-1.11255454952 0.0330416255512 0)
(3.07324562878 0.0362668795043 0)
(0.650155398224 0.156266502274 -0)
(3.6401572458 -1.5145224727 -0)
(0.0139591789454 2.30809265112e-08 0)
(0.0139585204211 -2.35202024245e-06 0)
(0.0137957491275 8.63881905815e-06 0)
(0.01488461404 2.26871605979e-05 0)
(0.0127000835473 -0.000399748032349 0)
(-1.68272658759 -0.00351676184152 -0)
(-1.07183491657 0.0269993252703 -0)
(-279.897477486 19.634375572 0)
(-1.06225550348 0.130339386219 0)
(-1.94571522726 0.395784759004 -0)
(0.0358800440651 1.90273538577e-08 0)
(0.0358820774295 -3.31319445337e-06 0)
(0.0359371046007 2.11318457336e-05 0)
(0.0355281536625 1.55594968822e-05 0)
(0.0360498028488 -0.000830859594327 0)
(0.0443314352958 0.00746244843507 0)
(-0.933138737368 -0.321629790863 0)
(-2.29288354368 0.433668464394 -0)
(3.32019809392 -3.14338774352 -0)
(0.762830544702 -0.542957069262 0)
(0.0719694815526 -1.61832535035e-07 0)
(0.0719770007943 2.90042758512e-06 0)
(0.0719066622469 -1.25301107346e-05 0)
(0.0721161452983 -2.41554288444e-05 0)
(0.0732313562375 0.00056894813146 0)
(0.0540548540161 -0.00242578057316 0)
(0.0379001629713 -0.00360972325027 0)
(71.0517882981 9.89438193653 -0)
(-1.13470863773 1.07024061847 -0)
(3.88776075533 -3.4541225211 -0)
(0.103629565494 3.03530310582e-07 0)
(0.103629025885 -2.41056061231e-06 0)
(0.103624208457 1.8211330509e-06 0)
(0.103674633552 7.86647798769e-05 0)
(0.103485827369 -0.000610689258531 0)
(0.103206087095 0.00165197591206 0)
(0.112908530551 0.0253960471788 0)
(0.0675551146338 -0.0879047882122 0)
(0.733906170939 0.361101184632 0)
(-0.688699516797 1.13090987814 -0)
)
;

boundaryField
{
    top
    {
        type            fixedValue;
        value           uniform (0.1 0 0);
    }
    bottom
    {
        type            fixedValue;
        value           nonuniform 0();
    }
    left
    {
        type            cyclic;
    }
    right
    {
        type            cyclic;
    }
    frontAndBack
    {
        type            empty;
    }
    procBoundary3to1
    {
        type            processor;
        value           nonuniform List<vector> 10((-1.93343798229e-06 3.12427497054e-07 0) (-6.56568193008e-07 -4.55054027249e-06 0) (5.82284025463e-05 1.99322314435e-05 0) (-0.000281504229713 4.52712335515e-05 0) (-3.72161234727e-05 -0.000974971284231 0) (0.00672344379619 0.00454515113123 0) (-0.0409016095763 0.0164557193745 0) (-0.101257491999 -0.214948958363 0) (-4.03671174999 -4.47451834133 -0) (-1.59433149857 -0.894542822906 0));
    }
    procBoundary3to2
    {
        type            processor;
        value           nonuniform List<vector> 10((1.50305801381e-06 4.20892569294e-08 0) (1.02082660866e-05 5.52133186254e-07 0) (4.54113116712e-05 -7.88857374429e-07 0) (0.000209666664832 7.58796954808e-08 0) (0.000952069978746 1.7575578381e-07 0) (0.00386624181695 -2.07682938795e-07 0) (0.0130222148424 6.03253381502e-08 0) (0.0347064204239 -6.25728677046e-08 0) (0.0714380244716 -3.44941720885e-08 0) (0.104125568338 2.97100700204e-08 0));
    }
    procBoundary3to2throughright
    {
        type            processorCyclic;
        value           nonuniform List<vector> 10((-6.40160478195 7.36948400016 0) (8.7284926503 -9.64391010811 -0) (18.1752150582 -13.1165157155 0) (-0.761730906738 1.13556599221 0) (0.299538055999 -0.0103881090609 0) (-0.978292754068 -0.366589288717 0) (-1.97026726935 -0.0138984532011 -0) (-0.254728737482 0.364876455777 0) (2.79168653545 0.205849700633 -0) (0.564383278203 0.0788047639036 0));
    }
}


// ************************************************************************* //
