/*--------------------------------*- C++ -*----------------------------------*\
| =========                 |                                                 |
| \\      /  F ield         | OpenFOAM: The Open Source CFD Toolbox           |
|  \\    /   O peration     | Version:  2.4.0                                 |
|   \\  /    A nd           | Web:      www.OpenFOAM.org                      |
|    \\/     M anipulation  |                                                 |
\*---------------------------------------------------------------------------*/
FoamFile
{
    version     2.0;
    format      ascii;
    class       volScalarField;
    location    "0.5";
    object      rho;
}
// * * * * * * * * * * * * * * * * * * * * * * * * * * * * * * * * * * * * * //

dimensions      [1 -3 0 0 0 0 0];

internalField   nonuniform List<scalar> 
100
(
-6.65903782621e+193
4.50512225162e+186
-1.26455903343e+184
6.02418537982e+178
-1.45833043331e+177
-2.65719746606e+170
5.32372814541e+168
4.3938705924e+163
5.03882415013e+163
-1.64022279992e+169
-1.65916303665e+195
1.20123890771e+194
-1.04197204498e+186
-1.58659946914e+186
-1.60603239592e+179
6.29214827398e+177
1.0137806655e+170
1.18093389047e+168
-1.04096272485e+169
-3.37543667319e+171
4.02787936594e+202
4.94188955209e+194
-2.50820963048e+193
-7.14495800612e+186
1.28787694729e+186
1.68845284313e+179
-2.27803977341e+177
-4.37261383924e+169
-1.66145417846e+171
8.97370334689e+176
6.56601696167e+203
-4.38350321466e+202
1.40083458581e+194
8.01372622758e+192
2.36630473202e+185
-6.43355008823e+184
-9.74908157541e+178
1.40958273858e+176
3.60818585226e+176
1.15206919722e+178
-1.10862600167e+212
2.09033410722e+203
9.9121501013e+201
-1.15889558712e+195
-1.56886828014e+193
2.45182598165e+186
3.36911042147e+184
-7.36359093739e+177
1.0138154317e+177
-2.15473623802e+184
-1.61984532354e+203
1.32952798319e+202
7.63697050775e+194
-2.56728353814e+194
-2.92022846797e+186
5.36970153174e+185
2.09442463792e+177
-1.59689197729e+177
-1.16227271527e+174
-7.6951632806e+176
4.94588776258e+202
-2.36705996149e+196
-6.35288254875e+195
2.27337479549e+188
1.50891198157e+187
-7.26206662924e+179
-4.38278427559e+178
3.45169528402e+171
1.51634465191e+170
1.23560454614e+177
-5.4087590759e+195
-1.15601829687e+196
7.0483293734e+188
4.5258090838e+187
-5.30423236789e+180
-1.49202974119e+179
2.25421618045e+172
6.50582566263e+170
-9.70465122508e+169
-7.80279082748e+170
-1.51519624129e+195
4.72584657823e+188
6.08947667357e+187
-9.34527949072e+180
-2.84328821527e+179
5.3421193887e+172
1.52931423127e+171
-7.87179472303e+164
-1.70649325256e+165
1.52563127938e+170
5.04250202224e+187
2.40760601963e+187
-6.46056803244e+180
-3.58780233907e+179
8.08934861804e+172
2.68326895007e+171
-7.52863152361e+164
-2.18887766003e+163
3.51555717773e+164
-1.07506096938e+164
)
;

boundaryField
{
    top
    {
        type            bounceBack;
        value           nonuniform 0();
    }
    bottom
    {
        type            bounceBack;
        value           uniform 1;
    }
    left
    {
        type            cyclic;
    }
    right
    {
        type            cyclic;
    }
    frontAndBack
    {
        type            empty;
    }
    procBoundary0to1
    {
        type            processor;
        value           nonuniform List<scalar> 10(6.32989360891e+163 -1.26700562101e+169 -2.83079919691e+171 5.89814926689e+176 1.65215359586e+177 -4.45777493035e+175 -3.1523396865e+169 -3.88901399778e+169 -3.11794970786e+163 -3.07586706438e+161);
    }
    procBoundary0to1throughleft
    {
        type            processorCyclic;
        value           nonuniform List<scalar> 10(1.40083090384e+185 4.60919303707e+192 3.16326092638e+193 -5.48800450563e+201 3.41315784142e+202 5.48914946146e+201 7.75586026931e+191 -8.91014919884e+192 -2.98188826041e+186 2.05916557591e+184);
    }
    procBoundary0to2
    {
        type            processor;
        value           nonuniform List<scalar> 10(-7.40987466751e+177 6.23322454965e+171 8.45537675349e+170 -4.15882533735e+164 -1.96550076018e+163 8.96281170741e+156 2.9789254188e+155 -2.90880968621e+149 3.12335142562e+150 2.30147456823e+155);
    }
}


// ************************************************************************* //
