/*--------------------------------*- C++ -*----------------------------------*\
| =========                 |                                                 |
| \\      /  F ield         | OpenFOAM: The Open Source CFD Toolbox           |
|  \\    /   O peration     | Version:  2.4.0                                 |
|   \\  /    A nd           | Web:      www.OpenFOAM.org                      |
|    \\/     M anipulation  |                                                 |
\*---------------------------------------------------------------------------*/
FoamFile
{
    version     2.0;
    format      ascii;
    class       volVectorField;
    location    "0.5";
    object      U;
}
// * * * * * * * * * * * * * * * * * * * * * * * * * * * * * * * * * * * * * //

dimensions      [0 1 -1 0 0 0 0];

internalField   nonuniform List<vector> 
100
(
(-0.191991781671 -1.15277573585 -0)
(3.17666159979 -3.85510075079 0)
(2.50666054577 -3.99658445435 -0)
(-1.68498484304 -1.66553701932 0)
(-2.4574618217 -1.04423014156 -0)
(1.04971493329 2.1050713785 -0)
(0.894676559643 1.18713478574 0)
(-0.0786110940432 -1.06918332922 0)
(-1.14349357437 -0.448301151643 0)
(-1.0725082904 -0.662693776494 -0)
(-0.931880159158 1.31391459915 -0)
(0.631038846108 0.021709918426 0)
(0.397187716437 0.130579870292 -0)
(0.00495615101842 -1.04585659305 -0)
(0.0625073519703 0.232729343873 -0)
(0.0233560820189 -0.651043115419 0)
(-0.809560772904 -0.551017082617 0)
(3.24391890427 -1.61816552441 0)
(-1.13720480624 -0.483078184887 -0)
(-1.20108626711 -0.39447915624 -0)
(0.296281364937 1.94530911457 0)
(-0.13630245763 -0.820611959804 0)
(-0.87099841907 -0.735112424391 -0)
(0.75494103718 4.03896379179 -0)
(0.423514265306 1.64106693254 0)
(-0.452272812251 -0.316287024582 0)
(0.800380552449 -0.0261622505994 -0)
(-5.02098029449 -22.2079635754 -0)
(-1.19945495461 -0.0372158369773 -0)
(-1.17839366306 -0.407238432265 0)
(-0.711118914671 -0.102073449989 0)
(-0.45856291262 -0.639740430977 -0)
(-0.324662335971 3.26255631641 0)
(-3.42984840546 -13.5774383767 0)
(17.9381044668 7.63254871773 0)
(1.07163476297 3.60922747511 -0)
(1.1527057882 0.208060700268 -0)
(1.08913717545 1.31714811275 0)
(-1.17576427581 -0.153204053982 0)
(-1.13694971322 -0.183715359072 0)
(-0.853101887315 -0.0749869766954 -0)
(2.40050725098 0.247693732164 0)
(1.14641340068 0.360580499758 0)
(1.11972903978 0.0449919275417 -0)
(1.15942898589 0.0835302450397 -0)
(1.16874459602 0.00867053874127 0)
(1.15775372078 0.0181749067926 0)
(1.1248234902 0.00160027268872 -0)
(-1.8163108337 -0.00265210459306 0)
(-1.158003777 -0.000730520733233 -0)
(4.03543790128 0.643806848022 -0)
(4.77663428085 -1.65188687641 0)
(2.34427553635 -0.896389047879 0)
(1.11924035615 -0.109465709217 -0)
(1.16122632997 -0.614275621121 -0)
(1.16834573381 0.0294257206151 0)
(1.27375850241 -2.02900541149 0)
(1.16336888884 0.0501153764236 -0)
(4.10921077886 -46.1291557378 -0)
(-0.900991746839 -1.0534957333 -0)
(13.5506731112 6.2444543441 0)
(-3.26580519365 -1.64534683827 -0)
(1.23499924928 0.242805616066 -0)
(1.09255691394 0.378203313846 0)
(1.15437189736 0.0790657738303 0)
(1.20349634691 0.0678278026806 -0)
(1.16237948716 0.041985670831 -0)
(1.17523244037 0.00619090040261 0)
(1.49711831139 -0.168257772009 0)
(-1.03489571857 -0.113398377312 0)
(-5.97829626673 -3.24132532714 -0)
(1.43973987835 0.885989381751 -0)
(1.84883616735 0.878935159588 0)
(1.16114981469 0.430576358863 0)
(1.12960086781 0.266909364494 -0)
(1.18276709578 0.309311034717 -0)
(1.19455834952 0.165860690199 0)
(1.18236992189 0.252328134274 0)
(-1.18189863908 -0.113175288313 -0)
(-0.731662329145 3.02118412515 -0)
(1.15914974341 1.12105050646 -0)
(1.78945515234 1.04327403034 0)
(1.02747546381 0.906106220021 0)
(1.13141903624 0.701456168304 -0)
(1.12591735368 0.66184727351 -0)
(1.17591611656 0.507201334138 0)
(1.1563092217 0.498904327745 0)
(-0.00121621696212 0.116355762999 -0)
(3.29221967211 0.720169098238 -0)
(28.5218628946 5.81882387302 0)
(1.20757304716 0.911257610087 0)
(0.580777809919 1.12157914455 0)
(0.983287605056 0.980289412287 -0)
(0.946396470928 0.94750218991 -0)
(1.05573208907 0.82099428228 0)
(1.06220780229 0.732320079307 0)
(1.13242283293 0.632070167163 -0)
(1.11312726399 0.580484620301 -0)
(1.1963582075 0.331166159037 0)
(-9.3037537019 -5.20310162782 -0)
)
;

boundaryField
{
    top
    {
        type            fixedValue;
        value           nonuniform 0();
    }
    bottom
    {
        type            fixedValue;
        value           uniform (0 0 0);
    }
    left
    {
        type            cyclic;
    }
    right
    {
        type            cyclic;
    }
    frontAndBack
    {
        type            empty;
    }
    procBoundary0to1
    {
        type            processor;
        value           nonuniform List<vector> 10((-1.12990101354 -0.662981502615 0) (-1.11812076105 -0.57651639987 -0) (-1.16679144976 -0.0517192951047 -0) (-1.1763989769 -0.164814647323 0) (-1.15971542443 -0.00722789025608 0) (-0.907352910348 -2.10637743758 -0) (-1.33280993734 -1.69944029798 -0) (-2.88000254797 -0.780817583347 -0) (-0.680939082334 0.479017281931 -0) (-1.1025588316 3.82371132755 -0));
    }
    procBoundary0to1throughleft
    {
        type            processorCyclic;
        value           nonuniform List<vector> 10((1.85370566149 -0.923833555049 0) (0.708167921974 -0.934158099636 0) (4.65379027025 0.446232520666 0) (-2.88624214252 -0.258158813932 -0) (-2.71961424721 -0.331928551384 0) (4.13922584544 0.998167586933 0) (76.3693785426 64.373185343 0) (1.24504081669 1.17069377529 -0) (0.727544198029 1.12727835928 -0) (0.318941412636 1.14381084681 0));
    }
    procBoundary0to2
    {
        type            processor;
        value           nonuniform List<vector> 10((0.0874444554422 1.12182805241 -0) (0.394281541699 1.12470617592 0) (0.591061497911 1.0524030821 0) (0.870363315012 0.961783782186 -0) (0.916081783214 0.896302230552 -0) (1.04247022911 0.805609244901 0) (1.06469914617 0.734852557983 0) (-2.03846142097 -0.482861713464 -0) (0.690083820148 0.0501223548551 0) (1.75537016415 1.15565942696 0));
    }
}


// ************************************************************************* //
