/*--------------------------------*- C++ -*----------------------------------*\
| =========                 |                                                 |
| \\      /  F ield         | OpenFOAM: The Open Source CFD Toolbox           |
|  \\    /   O peration     | Version:  2.4.0                                 |
|   \\  /    A nd           | Web:      www.OpenFOAM.org                      |
|    \\/     M anipulation  |                                                 |
\*---------------------------------------------------------------------------*/
FoamFile
{
    version     2.0;
    format      ascii;
    class       volScalarField;
    location    "0.2";
    object      rho;
}
// * * * * * * * * * * * * * * * * * * * * * * * * * * * * * * * * * * * * * //

dimensions      [1 -3 0 0 0 0 0];

internalField   nonuniform List<scalar> 
100
(
1.00000223947
0.999984860892
0.999986770867
1.00108814849
0.997667464307
1.11817452826
1.84725344683
-23.8172570261
-81.0760410505
1199.02218439
0.999995195183
1.00005156049
0.99985342258
0.999169053169
1.01420787254
1.02114124052
1.18595466824
6.2070059425
28.2208153803
-112.024265136
1.00001546461
0.99989685812
1.00009456137
1.00629521112
1.00141456169
1.5448615427
5.66623784379
520.765777882
-727.952485317
3442.64851765
0.999997878311
1.000027315
0.999922262381
0.999658293826
1.00827069877
1.02689889894
575.314709708
-49295.6344445
-6721.43946823
51910.7597154
0.999994270976
1.00004209713
1.00000081436
0.998656966329
1.01786961411
-3.56554878348
-265008.219811
-1051458.36875
2713952.80272
-1660726.87826
1.00000685797
0.999926710793
1.00022310962
1.00161167893
0.989469283997
1.14135858754
-7.09298257547
52628.2095237
-5110.33716079
-50521.6574137
0.999979937135
1.00013706659
1.00011389309
0.997862470716
1.11352558601
-6.74821290186
-96.2907908579
474.677268609
1433.1044951
-27912.8771106
1.00000132468
0.999984246602
1.00006185426
1.00050030453
1.0019039542
1.09918834525
-11.2760423171
-55.0627378587
266.926087741
360.914376905
1.00001657787
0.999898992732
1.0000623079
1.00495548389
0.995428784282
1.43211477182
4.4610387588
-140.3712145
-304.757914791
3321.39506885
0.999988471238
1.00005936795
0.999998042957
0.998673648979
1.01232288889
1.0407944926
-12.358178081
-337.895912587
536.029762764
-2068.36166065
)
;

boundaryField
{
    top
    {
        type            bounceBack;
        value           nonuniform 0();
    }
    bottom
    {
        type            bounceBack;
        value           uniform 1;
    }
    left
    {
        type            cyclic;
    }
    right
    {
        type            cyclic;
    }
    frontAndBack
    {
        type            empty;
    }
    procBoundary1to0
    {
        type            processor;
        value           nonuniform List<scalar> 10(1.00000014031 0.999999713416 1.00000058809 0.99999998075 0.999999706335 1.00000030778 0.999999581823 0.999999749581 1.00000036122 1.00000031667);
    }
    procBoundary1to0throughright
    {
        type            processorCyclic;
        value           nonuniform List<scalar> 10(3.44603431964 -3.2664754926 8.81389100987 1.10100926791 -16.6184426495 5.91859825792 -33.9111635967 2.53410199853 8.26434791822 9.85685286281);
    }
    procBoundary1to3
    {
        type            processor;
        value           nonuniform List<scalar> 10(1.00000038519 0.999992010884 1.00000367364 1.00026220255 0.998383906605 1.00425390639 1.0871846457 -5.06517569568 -17.9867580477 214.840092347);
    }
}


// ************************************************************************* //
