/*--------------------------------*- C++ -*----------------------------------*\
| =========                 |                                                 |
| \\      /  F ield         | OpenFOAM: The Open Source CFD Toolbox           |
|  \\    /   O peration     | Version:  2.4.0                                 |
|   \\  /    A nd           | Web:      www.OpenFOAM.org                      |
|    \\/     M anipulation  |                                                 |
\*---------------------------------------------------------------------------*/
FoamFile
{
    version     2.0;
    format      ascii;
    class       volVectorField;
    location    "0.2";
    object      U;
}
// * * * * * * * * * * * * * * * * * * * * * * * * * * * * * * * * * * * * * //

dimensions      [0 1 -1 0 0 0 0];

internalField   nonuniform List<vector> 
100
(
(-1.1418308313e-06 -1.97819510845e-08 0)
(-7.06003305817e-06 8.99152042752e-06 0)
(0.000103807067293 -4.91249792692e-05 0)
(-0.000516073293794 -6.64806954307e-05 0)
(-0.00302796916927 0.00246404785237 0)
(-0.0161534449203 -0.00938188454017 0)
(-0.406173328861 0.0318916330337 0)
(-1.22920520271 -0.0721578961738 -0)
(-2.50387863081 0.130339879996 -0)
(-1.72721829431 -0.0954458148918 0)
(4.63073645009e-06 3.68138386802e-07 0)
(-1.25733417847e-05 -1.5091587825e-05 0)
(-0.00011495282519 7.50559673816e-05 0)
(0.00108921722154 8.69998771577e-05 0)
(-0.00292660931487 -0.0051446347181 0)
(-0.037281804038 -0.00469544665937 0)
(0.0101151321148 -0.165391721924 0)
(-0.752516911674 -0.351596849609 0)
(-2.05585176075 0.445123481342 0)
(7.08132835348 2.45333133524 -0)
(-1.16191627699e-05 -4.68152070347e-08 0)
(8.5219683305e-07 -3.41060050397e-06 0)
(0.000490874947024 2.00593203395e-05 0)
(-0.00362857960466 1.48496844536e-05 0)
(-0.015484614378 -0.00083751907509 0)
(-0.187319128446 0.00421261661551 0)
(-0.951917982775 -0.000774274540687 0)
(-2.5124571324 -1.03811104808 0)
(-8.59847792774 -1.14386876944 -0)
(-1.94735251791 0.0828072310802 0)
(2.7646668513e-06 -8.32595388229e-07 0)
(-7.45769008615e-06 2.60631812755e-05 0)
(-5.63423782924e-05 -0.000125884341155 0)
(0.000545168571466 -0.000247382463248 0)
(-0.00162780651247 0.00828328876899 0)
(-0.0213457386145 -0.0128639165759 0)
(-1.11542534111 -0.156997632811 0)
(-9.86305043987 -1.48751036179 -0)
(18.866466756 13.5729590609 -0)
(-8.13037829301 0.364824076789 0)
(4.35874502546e-06 -2.44526914065e-07 0)
(1.37612588158e-07 -1.37741685656e-05 0)
(-0.00020334797926 8.17439458785e-05 0)
(0.00125354650699 3.24642774486e-05 0)
(-0.00364014064973 -0.00312651230454 0)
(-1.73515221165 -0.0324356820274 -0)
(-1.12833432403 -0.0302938515075 -0)
(3.3583062112 0.171822332559 -0)
(-0.103923436075 -0.00427445924164 0)
(-2.54351020203 -0.129717221383 -0)
(-6.7537605632e-06 -5.8746358953e-07 0)
(1.81490222199e-05 1.66222154729e-05 0)
(0.000160575907844 -8.13197094207e-05 0)
(-0.00160637628058 -0.000279370443399 0)
(0.0022707080771 0.00235660125432 0)
(-0.00118917942453 -0.0636540714392 0)
(-3.01368803754 -1.11749301611 -0)
(7.64253979684 -0.158964398962 0)
(35.1154052033 -14.2961993416 -0)
(9.1060902287 1.60874189087 -0)
(1.53647919341e-05 2.84611253708e-07 0)
(-6.82371127442e-07 7.76309222838e-06 0)
(-0.000692210488227 -4.55640373181e-05 0)
(0.00378073026405 -3.03935470544e-05 0)
(-0.0453086696914 0.00172170352617 0)
(-1.44929329987 0.00650753636146 -0)
(-1.09591235056 0.00236291385296 -0)
(-1.82920804577 -0.0518187836128 0)
(-14.883028228 -0.772180517929 0)
(-2.00530633698 0.0166163434178 -0)
(-2.51189493324e-06 1.25913690217e-06 0)
(5.0156590525e-06 -4.27321827374e-05 0)
(3.35426367746e-05 0.000201329498999 0)
(-0.000406966412159 0.000524710503758 0)
(0.000283578119551 -0.00928033382616 0)
(-0.0206075059455 0.0820519445323 0)
(-1.56070890267 0.962252177951 -0)
(1.01072312149 -3.99246129004 -0)
(-1.00109152717 1.66164166601 0)
(-1.31839330908 -0.743077320306 0)
(-1.27716793968e-05 -8.90228180983e-07 0)
(6.02736059152e-06 1.67830515022e-05 0)
(0.000442431741778 -6.24407994873e-05 0)
(-0.00316841417334 -0.000125990207433 0)
(-0.00909396910393 0.00241547425938 0)
(-0.13514909656 -0.00990272422859 0)
(-0.886854979648 0.0062068894501 0)
(-1.07397558696 -0.0358690636432 -0)
(-5.16154098564 0.0353455132051 -0)
(-1.90106453851 -0.24119680342 0)
(9.84124559825e-06 -1.05464338311e-06 0)
(3.24943262983e-06 2.71021874219e-05 0)
(-0.000262051396605 -0.000120365975514 0)
(0.00131279957684 -0.00025433032391 0)
(-0.00145147507892 0.00680602058803 0)
(-0.0466512570676 -0.0164467838477 0)
(-1.36206993464 -0.865108757548 -0)
(-10.3775124318 -1.45098034422 -0)
(0.106285707698 1.12099729793 0)
(1.30633887785 -0.513982943353 -0)
)
;

boundaryField
{
    top
    {
        type            fixedValue;
        value           nonuniform 0();
    }
    bottom
    {
        type            fixedValue;
        value           uniform (0 0 0);
    }
    left
    {
        type            cyclic;
    }
    right
    {
        type            cyclic;
    }
    frontAndBack
    {
        type            empty;
    }
    procBoundary1to0
    {
        type            processor;
        value           nonuniform List<vector> 10((-6.61281870151e-08 1.19340137299e-07 0) (-1.07561349587e-07 2.56274951985e-08 0) (-5.497852586e-08 -1.56652646406e-07 0) (1.77934181615e-08 9.06129625873e-08 0) (-5.1940797432e-08 -1.14817875431e-07 0) (2.36363572988e-07 6.96340855418e-08 0) (2.3085538482e-07 1.56926496157e-07 0) (-4.00009695475e-07 -5.82319918511e-07 0) (-4.89241886595e-08 9.03924172572e-07 0) (1.16421620258e-06 -5.15385266337e-07 0));
    }
    procBoundary1to0throughright
    {
        type            processorCyclic;
        value           nonuniform List<vector> 10((0.251699485689 -0.363326209057 0) (1.9068369132 -0.299515807011 -0) (-1.27466201636 1.13015352105 0) (16.4457983678 -9.50575004681 0) (-1.93106785017 -0.0501126109379 -0) (-0.535856008308 -0.591941536896 0) (-2.37956169775 -0.0369859893213 -0) (-0.131777456069 4.13037376892 0) (0.203303125366 -0.44440905518 0) (0.0846832245055 -1.16369548442 0));
    }
    procBoundary1to3
    {
        type            processor;
        value           nonuniform List<vector> 10((9.38863042004e-07 -8.09833265558e-07 0) (1.67516944671e-06 7.10723189674e-06 0) (3.32014219815e-05 -2.53042900532e-05 0) (-0.000193260325255 -7.42813502679e-05 0) (-8.58038648345e-05 0.00105241918409 0) (0.00716444109452 -0.00373494834443 0) (-0.0616522740646 -0.00907194993402 0) (-1.51141334273 -0.137122791052 -0) (13.1599872986 1.3955658031 -0) (-2.67832808944 -0.690643653765 0));
    }
}


// ************************************************************************* //
