/*--------------------------------*- C++ -*----------------------------------*\
| =========                 |                                                 |
| \\      /  F ield         | OpenFOAM: The Open Source CFD Toolbox           |
|  \\    /   O peration     | Version:  2.4.0                                 |
|   \\  /    A nd           | Web:      www.OpenFOAM.org                      |
|    \\/     M anipulation  |                                                 |
\*---------------------------------------------------------------------------*/
FoamFile
{
    version     2.0;
    format      ascii;
    class       volScalarField;
    location    "0.4";
    object      rho;
}
// * * * * * * * * * * * * * * * * * * * * * * * * * * * * * * * * * * * * * //

dimensions      [1 -3 0 0 0 0 0];

internalField   nonuniform List<scalar> 
100
(
-8.00193408383e+95
1.33960604052e+100
5.27127154673e+102
-1.15777588308e+107
2.19706774245e+108
5.85226328671e+113
-1.41660123695e+115
-7.78700630702e+118
7.78139398603e+118
-5.99030558227e+113
1.02779753635e+100
6.60668198741e+102
-1.18394936961e+107
-2.65290197828e+109
1.54013295356e+114
-6.47298897609e+115
-2.71884455165e+120
4.077440756e+120
1.73657457002e+120
-1.40636582368e+120
2.5137189859e+102
-6.90550597798e+106
-4.6946287101e+109
1.29126805576e+114
1.66386388891e+115
-1.58513057971e+121
2.14342135906e+119
3.72502070733e+126
-3.72278702164e+126
-9.69860378227e+120
-3.38575904688e+106
-1.69854548885e+108
8.05341279168e+113
4.26989538277e+115
-2.58544919798e+121
-1.01715079562e+122
1.237850456e+128
-1.08793754514e+128
-1.38702378755e+128
1.23720313831e+128
-9.45996720237e+106
1.61561266509e+113
1.88293550147e+114
-5.36563547892e+120
-5.34709583668e+121
2.5663399023e+128
7.70276776539e+128
-3.63062426724e+129
3.62988346376e+129
-7.69553361696e+128
2.5138015951e+105
5.16020737824e+106
-1.28365641751e+113
-1.78133470125e+114
6.54380006084e+120
4.94327201666e+121
-1.23879949045e+128
1.38757752998e+128
1.08945950524e+128
-1.23815493036e+128
2.87865088088e+100
-4.41379844724e+106
1.04231007295e+107
5.72829116396e+113
-7.64728516478e+113
-7.79306869418e+120
9.58804044876e+120
3.74224894788e+126
-3.74006265436e+126
-2.51179198549e+119
2.63627801677e+100
1.0727827696e+102
-7.56255899731e+107
-3.45837806871e+108
1.65800424551e+112
1.70118854287e+114
1.40873730485e+120
-1.73454579563e+120
-4.08407651399e+120
2.72146839302e+120
3.09149990935e+95
-1.87024425311e+101
-8.60839569805e+102
7.36325239149e+108
-1.74567747434e+109
-4.86896912604e+112
7.68779723738e+113
-7.82568523026e+118
7.82001666161e+118
1.18954302136e+115
1.6986878744e+93
3.198024834e+95
4.12775100148e+100
-2.65180029169e+102
-4.29294778065e+108
-1.02543904738e+107
-3.55953198639e+112
1.27931968122e+113
1.43365380786e+113
-8.78840604993e+112
)
;

boundaryField
{
    top
    {
        type            bounceBack;
        value           nonuniform 0();
    }
    bottom
    {
        type            bounceBack;
        value           uniform 1;
    }
    left
    {
        type            cyclic;
    }
    right
    {
        type            cyclic;
    }
    frontAndBack
    {
        type            empty;
    }
    procBoundary1to0
    {
        type            processor;
        value           nonuniform List<scalar> 10(2.76029806805e+86 6.74854504135e+88 -5.87314523288e+92 -7.51311101438e+93 5.93062748135e+98 5.6229824076e+92 -8.9624222159e+92 9.83943992307e+87 -2.23482599335e+87 -1.87798850873e+81);
    }
    procBoundary1to0throughright
    {
        type            processorCyclic;
        value           nonuniform List<scalar> 10(7.34389070707e+106 1.81886013032e+108 -1.82706729745e+114 -2.99189058258e+115 2.00978722103e+122 7.32630111963e+114 -2.23906210653e+114 6.69625078258e+108 1.74101997475e+108 -1.57311197222e+102);
    }
    procBoundary1to3
    {
        type            processor;
        value           nonuniform List<scalar> 10(-1.08441701428e+82 -4.63299448646e+87 3.25784733178e+89 2.57944683133e+93 -2.65137424476e+95 -1.74302783744e+98 2.26056441178e+99 -8.00028780697e+103 7.58166696702e+103 1.99144778338e+100);
    }
}


// ************************************************************************* //
