/*--------------------------------*- C++ -*----------------------------------*\
| =========                 |                                                 |
| \\      /  F ield         | OpenFOAM: The Open Source CFD Toolbox           |
|  \\    /   O peration     | Version:  2.4.0                                 |
|   \\  /    A nd           | Web:      www.OpenFOAM.org                      |
|    \\/     M anipulation  |                                                 |
\*---------------------------------------------------------------------------*/
FoamFile
{
    version     2.0;
    format      ascii;
    class       volVectorField;
    location    "0.4";
    object      U;
}
// * * * * * * * * * * * * * * * * * * * * * * * * * * * * * * * * * * * * * //

dimensions      [0 1 -1 0 0 0 0];

internalField   nonuniform List<vector> 
100
(
(-1.13519423222 -0.653112095967 -0)
(-1.00904545136 -0.802628827893 0)
(-1.2474935799 -1.0265138436 0)
(-0.882127903536 -0.985736874828 -0)
(0.315414993174 -0.811370944035 0)
(-0.572986850032 -1.10660888697 0)
(-0.731347643991 -1.13603726907 -0)
(-1.07119433497 -1.16189150567 -0)
(-1.07123678848 -1.16188986604 0)
(1.85488350195 -0.923911057481 -0)
(-1.11815376829 -0.576472126746 0)
(-1.15589655082 -0.349942424932 0)
(-1.08341030254 -0.713164633876 -0)
(-2.58527361123 -1.04120386182 -0)
(-1.03027934578 -0.935109913718 0)
(-0.996976082691 -1.01364625833 -0)
(-1.24819798439 -1.17108080347 -0)
(-0.906130994155 -1.30093420443 0)
(5.0503737354 -1.8962520074 0)
(0.710057705514 -0.934262169743 -0)
(-1.16636135458 -0.0486203708277 0)
(-1.18321551633 -0.489027735146 -0)
(-1.12620091507 -0.0916834885902 -0)
(-1.17220909875 -0.58925095705 0)
(-12.3517452725 -2.25624385746 0)
(-1.70221384537 -1.05282730162 -0)
(-84.4075154152 -71.2871186566 0)
(-5.11179922769 -1.12834512071 0)
(-5.11198165138 -1.12835329876 -0)
(4.64464817677 0.445548356229 -0)
(-1.17635144384 -0.164396733235 -0)
(-1.17844173273 -0.0769596853594 -0)
(-1.18250000182 -0.175593781103 0)
(-1.12610475757 -0.201353666258 0)
(-1.14079229814 -0.158599107575 -0)
(5.89056355216 1.0556013702 -0)
(-4.14756668919 -0.99808821028 0)
(-3.19753523538 -1.65687116181 -0)
(-4.80439887907 0.0542523686201 -0)
(-2.89064845074 -0.257888543633 0)
(-1.15971564581 -0.00722971568214 -0)
(-1.15744499315 -0.00336891079704 0)
(-1.23119791132 -0.0365102225249 0)
(-1.16190671123 -0.015556005195 -0)
(-1.08265304347 -0.198271988748 -0)
(-1.12822261378 -0.0742379446197 0)
(2.71880301741 0.331802675222 0)
(3146.24553048 379.435430885 -0)
(3145.81489069 379.373080063 0)
(-2.72007312422 -0.331999455028 -0)
(-0.903540768498 -2.13848304991 0)
(-1.84317096795 -2.12290701495 0)
(-1.02887041156 -1.08708524327 -0)
(-1.05660398662 -0.923338739583 -0)
(-1.04014868321 -0.853505783407 0)
(1.80256270648 0.241427158734 0)
(2.87855051798 0.258626775498 -0)
(4.7806396634 -0.0550511906924 0)
(3.18935398739 1.65612115022 0)
(4.13445504982 0.998207959818 -0)
(-1.91096383912 -1.72132105792 0)
(-2.20984502882 -0.832920755738 -0)
(-1.06603497126 0.0275031381396 0)
(-1.60176335544 -0.557956410405 0)
(-4.4294376526 -1.21528762427 -0)
(-1.53953271685 -0.0423402883915 -0)
(-4.66948937631 -0.447408619315 0)
(5.0935843048 1.1280569804 0)
(5.09372269829 1.12804889881 -0)
(71.9797243389 60.6055591216 -0)
(-2.7479171362 -0.768521935101 0)
(-1.02616830164 -1.47213049448 0)
(-1.02450603513 -1.45771973063 -0)
(3.87870478508 8.19044769542 -0)
(54.1950131266 125.364032169 0)
(-0.892817823392 -1.61242712932 0)
(-0.704976935679 0.933990966314 0)
(-5.02307411161 1.9002007166 -0)
(0.902260936704 1.29945146226 -0)
(1.24318225976 1.17043766626 0)
(-0.705834092203 0.478387311467 0)
(-0.820251211194 0.410028411298 -0)
(-0.340794037878 -0.582514783464 -0)
(-0.361747980116 -0.383049214091 0)
(-1.4721876693 -3.42117700572 -0)
(-0.744291263639 1.14027760399 -0)
(-1.62576678858 0.808504506684 0)
(1.06711185124 1.16193861715 -0)
(1.06715365547 1.16194613489 0)
(0.728317020139 1.12722128687 0)
(-1.00517330847 7.09933680905 0)
(0.475429036439 0.0109384507899 0)
(-2.45290397088 -0.846429683014 0)
(-2.21285640647 -3.61985729112 -0)
(0.264215808506 1.12792852812 -0)
(-0.403558636181 1.02453395283 -0)
(-0.428181420959 0.807746860689 -0)
(-1.04937717482 1.02142118978 0)
(0.220617515831 1.13215931295 0)
(0.318531813383 1.14383901167 -0)
)
;

boundaryField
{
    top
    {
        type            fixedValue;
        value           nonuniform 0();
    }
    bottom
    {
        type            fixedValue;
        value           uniform (0 0 0);
    }
    left
    {
        type            cyclic;
    }
    right
    {
        type            cyclic;
    }
    frontAndBack
    {
        type            empty;
    }
    procBoundary1to0
    {
        type            processor;
        value           nonuniform List<vector> 10((-1.07253603609 -0.662696932149 0) (-1.1980350798 -0.383100476744 0) (-1.17847924767 -0.407200133742 -0) (-1.13696314917 -0.183712778553 -0) (-1.15800348285 -0.000731178259795 0) (-0.90837531117 -0.986635545617 0) (-1.04489524462 -0.128257223213 -0) (-4.02034950797 3.37191691405 0) (9.81039759411 2.23426899641 -0) (-1.05269402656 3.01046421743 -0));
    }
    procBoundary1to0throughright
    {
        type            processorCyclic;
        value           nonuniform List<vector> 10((-0.196255915484 -1.15273630968 0) (-0.921192840912 1.30867146991 0) (0.305535929382 1.95258722975 -0) (-0.711871120189 -0.102267905055 -0) (-0.853444732074 -0.0750699480655 0) (4.15216954225 0.69143110653 0) (13.9167929944 6.39907044179 -0) (-5.98768426462 -3.23001040945 0) (1.16715448435 1.12122670164 0) (1.18843751466 0.875620003257 -0));
    }
    procBoundary1to3
    {
        type            processor;
        value           nonuniform List<vector> 10((-2.2429194101 1.20648051767 -0) (-1.47879056548 -0.40798473797 -0) (-0.705420146731 -0.215513462676 0) (-5.02152753372 -3.28147012171 0) (0.266974528692 1.18179817683 -0) (-0.60182074122 0.999974902333 -0) (0.164791441358 1.96178742735 0) (0.0620797782129 1.12254153923 -0) (0.0693886165842 1.11917760237 0) (0.0521994245821 1.12224661129 0));
    }
}


// ************************************************************************* //
