/*--------------------------------*- C++ -*----------------------------------*\
| =========                 |                                                 |
| \\      /  F ield         | OpenFOAM: The Open Source CFD Toolbox           |
|  \\    /   O peration     | Version:  2.4.0                                 |
|   \\  /    A nd           | Web:      www.OpenFOAM.org                      |
|    \\/     M anipulation  |                                                 |
\*---------------------------------------------------------------------------*/
FoamFile
{
    version     2.0;
    format      ascii;
    class       volVectorField;
    location    "0.5";
    object      U;
}
// * * * * * * * * * * * * * * * * * * * * * * * * * * * * * * * * * * * * * //

dimensions      [0 1 -1 0 0 0 0];

internalField   nonuniform List<vector> 
400
(
(7.89978192514e-08 4.51028103754e-17 0)
(7.89978192098e-08 3.12250225676e-17 0)
(7.89978192653e-08 -4.85722573274e-17 0)
(7.89978191959e-08 3.81639164715e-17 0)
(7.89978191022e-08 6.59194920871e-17 0)
(7.89978190675e-08 6.93889390391e-17 0)
(7.89978189739e-08 9.02056207508e-17 0)
(7.89978189704e-08 1.28369537222e-16 0)
(7.89978191647e-08 1.04083408559e-16 0)
(7.89978191022e-08 -3.12250225676e-17 0)
(7.89978190675e-08 4.51028103754e-17 0)
(7.89978190641e-08 -3.46944695195e-17 0)
(7.89978191335e-08 -6.93889390391e-18 0)
(7.89978190953e-08 -5.20417042793e-17 0)
(7.8997819019e-08 -1.38777878078e-17 0)
(7.89978189947e-08 -2.77555756156e-17 0)
(7.89978189981e-08 8.67361737988e-17 0)
(7.89978191161e-08 1.21430643318e-16 0)
(7.89978192445e-08 9.71445146547e-17 0)
(7.89978192722e-08 1.28369537222e-16 0)
(3.65343540282e-07 2.11636264069e-16 0)
(3.65343540275e-07 3.26128013484e-16 0)
(3.65343540341e-07 1.73472347598e-16 0)
(3.65343540348e-07 2.18575157973e-16 0)
(3.65343540233e-07 1.35308431126e-16 0)
(3.65343540143e-07 7.2858385991e-17 0)
(3.65343540022e-07 1.5959455979e-16 0)
(3.65343539838e-07 2.15105711021e-16 0)
(3.65343539911e-07 1.87350135406e-16 0)
(3.65343539987e-07 1.31838984174e-16 0)
(3.65343540001e-07 1.73472347598e-16 0)
(3.65343540181e-07 1.28369537222e-16 0)
(3.65343540216e-07 6.24500451352e-17 0)
(3.65343540053e-07 -7.6327832943e-17 0)
(3.65343539966e-07 9.02056207508e-17 0)
(3.65343539966e-07 1.52655665886e-16 0)
(3.65343540035e-07 3.78169717763e-16 0)
(3.65343540108e-07 1.80411241502e-16 0)
(3.65343540212e-07 2.39391839685e-16 0)
(3.65343540195e-07 2.8449465006e-16 0)
(1.16318964813e-06 2.35922392733e-16 0)
(1.16318964821e-06 2.8449465006e-16 0)
(1.16318964822e-06 2.53269627493e-16 0)
(1.16318964836e-06 1.94289029309e-16 0)
(1.1631896483e-06 2.11636264069e-16 0)
(1.16318964824e-06 2.42861286637e-17 0)
(1.16318964804e-06 9.02056207508e-17 0)
(1.16318964801e-06 1.17961196366e-16 0)
(1.16318964804e-06 2.56739074445e-16 0)
(1.163189648e-06 1.7694179455e-16 0)
(1.16318964795e-06 3.3653635434e-16 0)
(1.16318964809e-06 9.36750677028e-17 0)
(1.16318964808e-06 -3.46944695195e-17 0)
(1.16318964806e-06 1.38777878078e-17 0)
(1.16318964811e-06 1.80411241502e-16 0)
(1.16318964801e-06 2.671474153e-16 0)
(1.16318964806e-06 3.08780778724e-16 0)
(1.16318964818e-06 2.42861286637e-16 0)
(1.16318964825e-06 2.28983498829e-16 0)
(1.16318964823e-06 2.35922392733e-16 0)
(2.4613055937e-06 3.53883589099e-16 0)
(2.46130559381e-06 3.33066907388e-16 0)
(2.46130559401e-06 4.47558656802e-16 0)
(2.46130559415e-06 4.05925293379e-16 0)
(2.46130559413e-06 3.57353036051e-16 0)
(2.46130559416e-06 2.74086309204e-16 0)
(2.46130559404e-06 2.91433543964e-16 0)
(2.46130559394e-06 2.32452945781e-16 0)
(2.46130559386e-06 3.1918911958e-16 0)
(2.46130559383e-06 3.50414142147e-16 0)
(2.46130559378e-06 3.57353036051e-16 0)
(2.4613055938e-06 2.28983498829e-16 0)
(2.46130559389e-06 1.35308431126e-16 0)
(2.46130559395e-06 2.35922392733e-16 0)
(2.46130559397e-06 3.08780778724e-16 0)
(2.4613055939e-06 2.42861286637e-16 0)
(2.46130559385e-06 3.78169717763e-16 0)
(2.46130559389e-06 4.19803081186e-16 0)
(2.46130559402e-06 2.91433543964e-16 0)
(2.46130559398e-06 2.08166817117e-16 0)
(2.94534718747e-06 5.65519853168e-16 0)
(2.94534718741e-06 4.92661467177e-16 0)
(2.94534718757e-06 5.93275428784e-16 0)
(2.94534718768e-06 6.17561557448e-16 0)
(2.9453471878e-06 4.6143644461e-16 0)
(2.94534718788e-06 4.09394740331e-16 0)
(2.94534718776e-06 3.71230823859e-16 0)
(2.9453471876e-06 3.64291929955e-16 0)
(2.94534718755e-06 4.96130914129e-16 0)
(2.94534718752e-06 4.64905891562e-16 0)
(2.94534718746e-06 4.68375338514e-16 0)
(2.94534718747e-06 5.65519853168e-16 0)
(2.94534718744e-06 5.72458747072e-16 0)
(2.94534718746e-06 5.44703171457e-16 0)
(2.94534718761e-06 3.95516952523e-16 0)
(2.94534718766e-06 3.57353036051e-16 0)
(2.94534718762e-06 5.23886489745e-16 0)
(2.94534718756e-06 4.68375338514e-16 0)
(2.94534718751e-06 4.37150315946e-16 0)
(2.94534718754e-06 3.08780778724e-16 0)
(-1.53776474847e-06 6.62664367823e-16 0)
(-1.53776474858e-06 6.66133814775e-16 0)
(-1.53776474845e-06 7.49400541622e-16 0)
(-1.53776474847e-06 6.38378239159e-16 0)
(-1.53776474841e-06 6.52256026967e-16 0)
(-1.53776474839e-06 6.10622663544e-16 0)
(-1.53776474832e-06 5.75928194024e-16 0)
(-1.53776474839e-06 6.31439345256e-16 0)
(-1.53776474848e-06 6.14092110496e-16 0)
(-1.53776474858e-06 6.59194920871e-16 0)
(-1.53776474865e-06 6.83481049535e-16 0)
(-1.53776474856e-06 6.80011602583e-16 0)
(-1.53776474867e-06 5.65519853168e-16 0)
(-1.53776474869e-06 5.30825383649e-16 0)
(-1.53776474853e-06 5.93275428784e-16 0)
(-1.53776474841e-06 6.48786580015e-16 0)
(-1.53776474843e-06 6.38378239159e-16 0)
(-1.53776474848e-06 5.55111512313e-16 0)
(-1.5377647485e-06 5.65519853168e-16 0)
(-1.5377647485e-06 5.58580959265e-16 0)
(-1.91461342209e-05 8.11850586757e-16 0)
(-1.91461342208e-05 8.81239525796e-16 0)
(-1.91461342208e-05 8.60422844085e-16 0)
(-1.91461342208e-05 7.91033905045e-16 0)
(-1.91461342209e-05 8.01442245901e-16 0)
(-1.91461342207e-05 9.0552565446e-16 0)
(-1.91461342207e-05 7.77156117238e-16 0)
(-1.91461342206e-05 8.32667268469e-16 0)
(-1.91461342208e-05 7.77156117238e-16 0)
(-1.91461342209e-05 7.25114412958e-16 0)
(-1.9146134221e-05 6.80011602583e-16 0)
(-1.9146134221e-05 7.25114412958e-16 0)
(-1.9146134221e-05 7.14706072102e-16 0)
(-1.91461342209e-05 7.11236625151e-16 0)
(-1.91461342209e-05 6.86950496487e-16 0)
(-1.91461342208e-05 8.18789480661e-16 0)
(-1.91461342207e-05 7.94503351997e-16 0)
(-1.91461342208e-05 8.25728374565e-16 0)
(-1.91461342209e-05 8.11850586757e-16 0)
(-1.91461342209e-05 8.50014503229e-16 0)
(-5.98524620968e-05 9.43689570931e-16 0)
(-5.98524620967e-05 8.43075609325e-16 0)
(-5.98524620968e-05 8.25728374565e-16 0)
(-5.98524620969e-05 9.08995101412e-16 0)
(-5.98524620969e-05 1.01654795692e-15 0)
(-5.98524620969e-05 1.02348685083e-15 0)
(-5.98524620967e-05 8.7083118494e-16 0)
(-5.98524620968e-05 8.881784197e-16 0)
(-5.98524620969e-05 8.25728374565e-16 0)
(-5.98524620969e-05 8.18789480661e-16 0)
(-5.98524620969e-05 8.39606162373e-16 0)
(-5.98524620969e-05 8.74300631892e-16 0)
(-5.98524620969e-05 8.29197821517e-16 0)
(-5.98524620969e-05 7.59808882478e-16 0)
(-5.98524620969e-05 7.07767178199e-16 0)
(-5.98524620969e-05 9.71445146547e-16 0)
(-5.98524620968e-05 8.81239525796e-16 0)
(-5.98524620968e-05 1.01307850997e-15 0)
(-5.98524620969e-05 1.0616507673e-15 0)
(-5.98524620969e-05 1.06512021425e-15 0)
(-0.000124430242514 9.64506252643e-16 0)
(-0.000124430242514 9.95731275211e-16 0)
(-0.000124430242514 9.99200722163e-16 0)
(-0.000124430242514 9.43689570931e-16 0)
(-0.000124430242514 1.08940634291e-15 0)
(-0.000124430242514 8.7083118494e-16 0)
(-0.000124430242514 8.18789480661e-16 0)
(-0.000124430242514 7.38992200766e-16 0)
(-0.000124430242514 9.36750677028e-16 0)
(-0.000124430242514 8.74300631892e-16 0)
(-0.000124430242514 9.61036805691e-16 0)
(-0.000124430242514 8.98586760556e-16 0)
(-0.000124430242515 8.67361737988e-16 0)
(-0.000124430242514 8.39606162373e-16 0)
(-0.000124430242514 7.94503351997e-16 0)
(-0.000124430242514 9.81853487403e-16 0)
(-0.000124430242514 9.50628464835e-16 0)
(-0.000124430242514 1.07899800206e-15 0)
(-0.000124430242515 1.05124242644e-15 0)
(-0.000124430242515 1.17961196366e-15 0)
(-0.000177829032831 9.74914593499e-16 0)
(-0.000177829032831 9.2287288922e-16 0)
(-0.000177829032831 9.02056207508e-16 0)
(-0.000177829032831 8.56953397133e-16 0)
(-0.000177829032831 8.81239525796e-16 0)
(-0.000177829032831 8.53483950181e-16 0)
(-0.000177829032831 7.66747776382e-16 0)
(-0.000177829032831 8.63892291036e-16 0)
(-0.000177829032831 9.36750677028e-16 0)
(-0.000177829032831 8.98586760556e-16 0)
(-0.000177829032831 9.95731275211e-16 0)
(-0.000177829032831 8.29197821517e-16 0)
(-0.000177829032831 7.66747776382e-16 0)
(-0.000177829032831 7.18175519054e-16 0)
(-0.000177829032831 8.56953397133e-16 0)
(-0.000177829032831 1.00267016911e-15 0)
(-0.000177829032831 9.2287288922e-16 0)
(-0.000177829032831 1.10328413072e-15 0)
(-0.000177829032831 1.00613961607e-15 0)
(-0.000177829032831 1.17961196366e-15 0)
(-0.000102715486997 9.92261828259e-16 0)
(-0.000102715486997 9.19403442268e-16 0)
(-0.000102715486997 6.62664367823e-16 0)
(-0.000102715486997 7.49400541622e-16 0)
(-0.000102715486997 6.59194920871e-16 0)
(-0.000102715486997 8.22258927613e-16 0)
(-0.000102715486997 7.84095011142e-16 0)
(-0.000102715486996 8.84708972748e-16 0)
(-0.000102715486996 7.6327832943e-16 0)
(-0.000102715486997 8.53483950181e-16 0)
(-0.000102715486997 8.50014503229e-16 0)
(-0.000102715486997 7.91033905045e-16 0)
(-0.000102715486997 6.48786580015e-16 0)
(-0.000102715486997 6.83481049535e-16 0)
(-0.000102715486997 7.97972798949e-16 0)
(-0.000102715486997 8.46545056277e-16 0)
(-0.000102715486997 9.02056207508e-16 0)
(-0.000102715486997 9.85322934355e-16 0)
(-0.000102715486997 1.02348685083e-15 0)
(-0.000102715486997 1.05124242644e-15 0)
(0.000362212836978 9.78384040451e-16 0)
(0.000362212836978 9.54097911787e-16 0)
(0.000362212836978 7.38992200766e-16 0)
(0.000362212836978 6.62664367823e-16 0)
(0.000362212836978 6.66133814775e-16 0)
(0.000362212836978 7.4593109467e-16 0)
(0.000362212836978 7.94503351997e-16 0)
(0.000362212836978 8.39606162373e-16 0)
(0.000362212836978 6.62664367823e-16 0)
(0.000362212836978 8.29197821517e-16 0)
(0.000362212836978 7.91033905045e-16 0)
(0.000362212836978 8.98586760556e-16 0)
(0.000362212836978 8.15320033709e-16 0)
(0.000362212836978 8.01442245901e-16 0)
(0.000362212836978 7.32053306862e-16 0)
(0.000362212836978 8.67361737988e-16 0)
(0.000362212836978 8.63892291036e-16 0)
(0.000362212836978 8.25728374565e-16 0)
(0.000362212836978 8.50014503229e-16 0)
(0.000362212836978 1.09634523682e-15 0)
(0.00167998675101 9.81853487403e-16 0)
(0.00167998675101 9.02056207508e-16 0)
(0.00167998675101 9.43689570931e-16 0)
(0.00167998675101 9.02056207508e-16 0)
(0.00167998675101 7.66747776382e-16 0)
(0.00167998675101 8.04911692853e-16 0)
(0.00167998675101 7.97972798949e-16 0)
(0.00167998675101 8.7083118494e-16 0)
(0.00167998675101 7.6327832943e-16 0)
(0.00167998675101 7.2858385991e-16 0)
(0.00167998675101 8.32667268469e-16 0)
(0.00167998675101 8.53483950181e-16 0)
(0.00167998675101 8.15320033709e-16 0)
(0.00167998675101 7.97972798949e-16 0)
(0.00167998675101 8.881784197e-16 0)
(0.00167998675101 9.88792381307e-16 0)
(0.00167998675101 9.40220123979e-16 0)
(0.00167998675101 8.60422844085e-16 0)
(0.00167998675101 9.67975699595e-16 0)
(0.00167998675101 8.63892291036e-16 0)
(0.00453549289913 9.02056207508e-16 0)
(0.00453549289913 8.74300631892e-16 0)
(0.00453549289913 9.61036805691e-16 0)
(0.00453549289913 9.2287288922e-16 0)
(0.00453549289913 7.25114412958e-16 0)
(0.00453549289913 7.04297731247e-16 0)
(0.00453549289913 8.29197821517e-16 0)
(0.00453549289913 7.4593109467e-16 0)
(0.00453549289913 8.18789480661e-16 0)
(0.00453549289913 8.43075609325e-16 0)
(0.00453549289913 9.36750677028e-16 0)
(0.00453549289913 7.73686670286e-16 0)
(0.00453549289913 7.07767178199e-16 0)
(0.00453549289913 6.69603261727e-16 0)
(0.00453549289913 9.67975699595e-16 0)
(0.00453549289913 9.71445146547e-16 0)
(0.00453549289913 8.46545056277e-16 0)
(0.00453549289913 8.95117313604e-16 0)
(0.00453549289913 9.29811783124e-16 0)
(0.00453549289913 7.94503351997e-16 0)
(0.00978000423272 6.66133814775e-16 0)
(0.00978000423272 6.38378239159e-16 0)
(0.00978000423272 6.97358837343e-16 0)
(0.00978000423272 6.41847686111e-16 0)
(0.00978000423272 7.11236625151e-16 0)
(0.00978000423272 5.65519853168e-16 0)
(0.00978000423272 6.76542155631e-16 0)
(0.00978000423272 7.21644966006e-16 0)
(0.00978000423272 8.15320033709e-16 0)
(0.00978000423272 8.25728374565e-16 0)
(0.00978000423272 8.08381139805e-16 0)
(0.00978000423272 6.66133814775e-16 0)
(0.00978000423272 5.93275428784e-16 0)
(0.00978000423272 6.41847686111e-16 0)
(0.00978000423272 8.46545056277e-16 0)
(0.00978000423272 9.12464548364e-16 0)
(0.00978000423272 9.26342336172e-16 0)
(0.00978000423272 9.64506252643e-16 0)
(0.00978000423272 8.7083118494e-16 0)
(0.00978000423272 8.01442245901e-16 0)
(0.0182780198217 5.72458747072e-16 0)
(0.0182780198217 5.30825383649e-16 0)
(0.0182780198217 5.41233724505e-16 0)
(0.0182780198217 6.00214322688e-16 0)
(0.0182780198217 6.14092110496e-16 0)
(0.0182780198217 6.38378239159e-16 0)
(0.0182780198217 5.58580959265e-16 0)
(0.0182780198217 6.210310044e-16 0)
(0.0182780198217 5.27355936697e-16 0)
(0.0182780198217 6.24500451352e-16 0)
(0.0182780198217 7.70217223334e-16 0)
(0.0182780198217 7.18175519054e-16 0)
(0.0182780198217 5.58580959265e-16 0)
(0.0182780198217 5.82867087928e-16 0)
(0.0182780198217 7.25114412958e-16 0)
(0.0182780198217 6.97358837343e-16 0)
(0.0182780198217 8.84708972748e-16 0)
(0.0182780198217 8.29197821517e-16 0)
(0.0182780198217 8.32667268469e-16 0)
(0.0182780198217 7.07767178199e-16 0)
(0.0306716273879 4.40619762898e-16 0)
(0.0306716273879 4.16333634234e-16 0)
(0.0306716273879 4.96130914129e-16 0)
(0.0306716273879 4.75314232418e-16 0)
(0.0306716273879 5.13478148889e-16 0)
(0.0306716273879 4.23272528138e-16 0)
(0.0306716273879 3.15719672628e-16 0)
(0.0306716273879 3.67761376907e-16 0)
(0.0306716273879 4.09394740331e-16 0)
(0.0306716273879 4.92661467177e-16 0)
(0.0306716273879 6.00214322688e-16 0)
(0.0306716273879 5.75928194024e-16 0)
(0.0306716273879 4.51028103754e-16 0)
(0.0306716273879 4.64905891562e-16 0)
(0.0306716273879 3.98986399475e-16 0)
(0.0306716273879 4.6143644461e-16 0)
(0.0306716273879 6.59194920871e-16 0)
(0.0306716273879 5.82867087928e-16 0)
(0.0306716273879 5.93275428784e-16 0)
(0.0306716273879 5.27355936697e-16 0)
(0.0471240807698 3.05311331772e-16 0)
(0.0471240807698 3.46944695195e-16 0)
(0.0471240807698 4.16333634234e-16 0)
(0.0471240807698 1.94289029309e-16 0)
(0.0471240807698 2.15105711021e-16 0)
(0.0471240807698 2.08166817117e-16 0)
(0.0471240807698 1.5959455979e-16 0)
(0.0471240807698 2.15105711021e-16 0)
(0.0471240807698 2.42861286637e-16 0)
(0.0471240807698 2.49800180541e-16 0)
(0.0471240807698 3.33066907388e-16 0)
(0.0471240807698 1.2490009027e-16 0)
(0.0471240807698 1.87350135406e-16 0)
(0.0471240807698 9.71445146547e-17 0)
(0.0471240807698 1.11022302463e-16 0)
(0.0471240807698 9.71445146547e-17 0)
(0.0471240807698 1.04083408559e-16 0)
(0.0471240807698 2.28983498829e-16 0)
(0.0471240807698 2.22044604925e-16 0)
(0.0471240807698 2.56739074445e-16 0)
(0.0671232686403 1.94289029309e-16 0)
(0.0671232686403 2.28983498829e-16 0)
(0.0671232686403 1.87350135406e-16 0)
(0.0671232686403 1.11022302463e-16 0)
(0.0671232686403 1.11022302463e-16 0)
(0.0671232686403 1.11022302463e-16 0)
(0.0671232686403 1.52655665886e-16 0)
(0.0671232686403 1.31838984174e-16 0)
(0.0671232686403 1.5959455979e-16 0)
(0.0671232686403 2.08166817117e-17 0)
(0.0671232686403 6.24500451352e-17 0)
(0.0671232686403 -6.93889390391e-17 0)
(0.0671232686403 8.32667268469e-17 0)
(0.0671232686403 -1.5959455979e-16 0)
(0.0671232686403 -1.2490009027e-16 0)
(0.0671232686403 -3.46944695195e-17 0)
(0.0671232686403 -1.2490009027e-16 0)
(0.0671232686403 -3.46944695195e-17 0)
(0.0671232686403 -4.85722573274e-17 0)
(0.0671232686403 -6.24500451352e-17 0)
(0.0895721322457 4.16333634234e-17 0)
(0.0895721322457 -2.08166817117e-17 0)
(0.0895721322457 2.77555756156e-17 0)
(0.0895721322457 4.85722573274e-17 0)
(0.0895721322457 7.6327832943e-17 0)
(0.0895721322457 -6.93889390391e-18 0)
(0.0895721322457 2.77555756156e-17 0)
(0.0895721322457 0 0)
(0.0895721322457 1.38777878078e-17 0)
(0.0895721322457 -1.38777878078e-17 0)
(0.0895721322457 -1.04083408559e-16 0)
(0.0895721322457 4.85722573274e-17 0)
(0.0895721322457 -2.77555756156e-17 0)
(0.0895721322457 -1.04083408559e-16 0)
(0.0895721322457 -4.16333634234e-17 0)
(0.0895721322457 6.93889390391e-18 0)
(0.0895721322457 -1.2490009027e-16 0)
(0.0895721322457 -5.55111512313e-17 0)
(0.0895721322457 -2.77555756156e-17 0)
(0.0895721322457 -9.02056207508e-17 0)
)
;

boundaryField
{
    top
    {
        type            fixedValue;
        value           uniform (0.1 0 0);
    }
    bottom
    {
        type            fixedValue;
        value           uniform (0 0 0);
    }
    left
    {
        type            cyclic;
    }
    right
    {
        type            cyclic;
    }
    frontAndBack
    {
        type            empty;
    }
}


// ************************************************************************* //
