/*--------------------------------*- C++ -*----------------------------------*\
| =========                 |                                                 |
| \\      /  F ield         | OpenFOAM: The Open Source CFD Toolbox           |
|  \\    /   O peration     | Version:  2.4.0                                 |
|   \\  /    A nd           | Web:      www.OpenFOAM.org                      |
|    \\/     M anipulation  |                                                 |
\*---------------------------------------------------------------------------*/
FoamFile
{
    version     2.0;
    format      ascii;
    class       volScalarField;
    location    "800";
    object      rho;
}
// * * * * * * * * * * * * * * * * * * * * * * * * * * * * * * * * * * * * * //

dimensions      [1 -3 0 0 0 0 0];

internalField   nonuniform List<scalar> 
2500
(
1.00001762853
1.00001819727
1.00001822576
1.00001814218
1.00001794062
1.00001767106
1.00001735607
1.0000170133
1.00001665251
1.00001627966
1.00001589832
1.00001551079
1.00001511863
1.00001472294
1.00001432454
1.00001392404
1.0000135219
1.00001311849
1.00001271409
1.00001230891
1.00001190314
1.00001149691
1.00001109034
1.00001068351
1.0000102765
1.00000986939
1.00000946222
1.00000905507
1.00000864801
1.00000824112
1.00000783449
1.00000742823
1.00000702251
1.00000661751
1.00000621349
1.00000581077
1.00000540977
1.00000501107
1.00000461541
1.00000422385
1.00000383788
1.00000345971
1.00000309286
1.0000027433
1.00000242122
1.00000214573
1.00000194471
1.00000187897
1.00000197664
1.00000266717
1.00001810171
1.00001834922
1.00001821076
1.00001803462
1.0000177937
1.00001751697
1.00001721001
1.00001688109
1.00001653537
1.00001617691
1.00001580865
1.00001543277
1.00001505092
1.00001466433
1.00001427398
1.00001388062
1.00001348484
1.00001308712
1.00001268785
1.00001228734
1.00001188585
1.0000114836
1.00001108077
1.00001067753
1.00001027403
1.00000987039
1.00000946677
1.00000906328
1.00000866008
1.00000825732
1.00000785519
1.00000745391
1.00000705372
1.00000665495
1.00000625798
1.00000586329
1.00000547152
1.00000508343
1.00000470006
1.00000432273
1.00000395325
1.00000359403
1.00000324837
1.00000292096
1.00000261798
1.00000234922
1.00000212352
1.00000197229
1.00000188265
1.00000217548
1.00001853317
1.00001852928
1.00001830921
1.00001808247
1.00001781319
1.0000175199
1.00001720404
1.00001687067
1.00001652306
1.00001616415
1.00001579622
1.00001542109
1.00001504018
1.00001465462
1.00001426531
1.00001387296
1.00001347815
1.00001308136
1.00001268295
1.00001228327
1.00001188256
1.00001148105
1.00001107894
1.00001067639
1.00001027358
1.00000987063
1.0000094677
1.00000906493
1.00000866248
1.00000826051
1.00000785922
1.00000745883
1.00000705961
1.00000666189
1.00000626605
1.00000587258
1.00000548208
1.00000509532
1.00000471325
1.00000433712
1.0000039685
1.00000360943
1.00000326254
1.00000293127
1.00000261967
1.00000233376
1.00000207705
1.00000186849
1.00000168167
1.00000169956
1.00001885696
1.00001869336
1.00001841283
1.0000181409
1.00001784374
1.0000175319
1.00001720455
1.00001686433
1.00001651296
1.00001615225
1.00001578373
1.00001540875
1.00001502843
1.0000146437
1.00001425535
1.00001386403
1.00001347025
1.00001307447
1.00001267706
1.00001227833
1.00001187855
1.00001147793
1.00001107669
1.00001067501
1.00001027304
1.00000987094
1.00000946887
1.00000906698
1.00000866544
1.00000826442
1.00000786413
1.00000746481
1.00000706671
1.00000667016
1.00000627555
1.00000588335
1.00000549411
1.00000510855
1.0000047275
1.00000435202
1.00000398337
1.0000036231
1.00000327304
1.00000293534
1.00000261223
1.00000230686
1.0000020196
1.00000176037
1.00000150169
1.00000134518
1.00001911139
1.00001884434
1.00001852211
1.00001821416
1.00001789315
1.00001756373
1.00001722401
1.00001687514
1.00001651787
1.00001615322
1.00001578217
1.00001540563
1.00001502443
1.00001463929
1.00001425085
1.00001385965
1.00001346614
1.00001307073
1.00001267375
1.00001227548
1.00001187618
1.00001147607
1.00001107534
1.00001067417
1.00001027272
1.00000987116
1.00000946962
1.00000906827
1.00000866727
1.00000826681
1.00000786707
1.00000746828
1.00000707071
1.00000667464
1.00000628043
1.00000588851
1.00000549936
1.00000511357
1.00000473185
1.000004355
1.00000398397
1.00000361982
1.00000326373
1.00000291696
1.00000258055
1.00000225591
1.00000194188
1.00000164224
1.00000133399
1.00000106689
1.00001931199
1.00001897676
1.00001862518
1.00001828854
1.00001794712
1.00001760179
1.00001725024
1.00001689257
1.00001652888
1.00001615962
1.00001578531
1.00001540652
1.00001502381
1.00001463771
1.00001424871
1.00001385722
1.00001346364
1.00001306829
1.00001267148
1.00001227347
1.00001187447
1.0000114747
1.00001107434
1.00001067355
1.0000102725
1.00000987133
1.0000094702
1.00000906925
1.00000866865
1.00000826857
1.00000786919
1.00000747072
1.0000070734
1.0000066775
1.00000628332
1.00000589123
1.00000550164
1.00000511502
1.00000473191
1.00000435289
1.00000397862
1.00000360978
1.000003247
1.00000289089
1.00000254171
1.00000219967
1.00000186289
1.0000015313
1.00000118814
1.00000084948
1.00001947415
1.00001909279
1.0000187207
1.00001836186
1.00001800354
1.00001764431
1.00001728188
1.00001691571
1.00001654547
1.00001617122
1.00001579316
1.00001541159
1.00001502684
1.00001463928
1.00001424925
1.00001385707
1.00001346304
1.00001306745
1.00001267053
1.00001227251
1.0000118736
1.00001147396
1.00001107378
1.0000106732
1.00001027237
1.00000987144
1.00000947054
1.00000906982
1.00000866942
1.00000826951
1.00000787026
1.00000747184
1.00000707447
1.00000667839
1.00000628384
1.00000589114
1.00000550059
1.00000511256
1.00000472744
1.00000434562
1.0000039675
1.00000359346
1.00000322377
1.00000285855
1.00000249758
1.00000214033
1.00000178477
1.00000142863
1.00000106113
1.00000067534
1.00001960777
1.00001919415
1.00001880752
1.00001843158
1.00001805945
1.0000176883
1.00001731616
1.00001694208
1.00001656553
1.00001618627
1.00001580429
1.00001541967
1.00001503258
1.00001464325
1.00001425188
1.00001385872
1.00001346399
1.00001306791
1.00001267066
1.00001227244
1.00001187342
1.00001147375
1.00001107359
1.00001067307
1.00001027232
1.00000987148
1.00000947067
1.00000907002
1.00000866967
1.00000826976
1.00000787043
1.00000747185
1.0000070742
1.00000667767
1.00000628247
1.00000588882
1.00000549697
1.00000510718
1.00000471969
1.00000433476
1.00000395257
1.00000357328
1.00000319689
1.00000282321
1.00000245175
1.00000208154
1.00000171072
1.00000133587
1.00000095123
1.00000053353
1.00001971985
1.00001928294
1.00001888589
1.00001849679
1.00001811348
1.00001773226
1.00001735159
1.00001697035
1.00001658787
1.00001620376
1.00001581786
1.00001543009
1.0000150405
1.00001464919
1.00001425628
1.00001386193
1.00001346628
1.00001306951
1.00001267175
1.00001227316
1.00001187387
1.00001147402
1.00001107374
1.00001067314
1.00001027234
1.00000987145
1.00000947059
1.00000906988
1.00000866942
1.00000826935
1.00000786978
1.00000747086
1.00000707272
1.00000667553
1.00000627944
1.00000588461
1.00000549123
1.00000509944
1.00000470939
1.00000432121
1.00000393494
1.00000355056
1.00000316789
1.00000278657
1.00000240595
1.00000202487
1.00000164182
1.00000125275
1.00000085594
1.00000041606
1.00001981524
1.00001936096
1.0000189563
1.00001855702
1.00001816468
1.00001777502
1.00001738697
1.00001699933
1.00001661142
1.00001622276
1.00001583305
1.00001544216
1.00001505002
1.00001465663
1.00001426206
1.00001386637
1.00001346966
1.00001307205
1.00001267363
1.00001227453
1.00001187485
1.00001147469
1.00001107417
1.00001067337
1.0000102724
1.00000987136
1.00000947033
1.00000906943
1.00000866874
1.00000826837
1.00000786843
1.00000746901
1.00000707024
1.00000667223
1.00000627508
1.00000587892
1.00000548385
1.00000508995
1.00000469728
1.00000430587
1.00000391565
1.00000352648
1.00000313809
1.00000275
1.00000236152
1.00000197143
1.00000157862
1.00000117873
1.00000077315
1.00000031742
1.00001989735
1.00001942973
1.00001901943
1.00001861221
1.00001821257
1.00001781589
1.0000174215
1.00001702822
1.0000166354
1.00001624252
1.00001584923
1.00001545531
1.00001506064
1.00001466516
1.00001426886
1.00001387175
1.00001347389
1.00001307534
1.00001267616
1.00001227645
1.00001187626
1.0000114757
1.00001107483
1.00001067374
1.0000102725
1.0000098712
1.00000946991
1.00000906872
1.00000866769
1.00000826693
1.00000786649
1.00000746647
1.00000706695
1.000006668
1.0000062697
1.00000587211
1.00000547528
1.00000507925
1.00000468399
1.00000428945
1.00000389552
1.00000350195
1.00000310843
1.00000271442
1.00000231925
1.00000192175
1.00000152117
1.00000111299
1.00000070103
1.00000023366
1.00001996862
1.00001949049
1.00001907596
1.00001866246
1.00001825691
1.00001785439
1.00001745458
1.00001705638
1.00001665918
1.00001626245
1.00001586582
1.00001546904
1.00001507194
1.0000146744
1.00001427636
1.00001387781
1.00001347874
1.00001307919
1.00001267919
1.00001227878
1.00001187802
1.00001147696
1.00001107567
1.00001067421
1.00001027262
1.00000987099
1.00000946935
1.00000906779
1.00000866635
1.00000826509
1.00000786409
1.00000746338
1.00000706303
1.00000666308
1.00000626357
1.00000586452
1.00000546593
1.0000050678
1.00000467004
1.00000427257
1.00000387519
1.00000347765
1.00000307958
1.00000268046
1.00000227966
1.00000187607
1.00000146931
1.00000105474
1.00000063807
1.00000016194
1.00002003084
1.00001954426
1.00001912648
1.00001870799
1.00001829764
1.00001789024
1.00001748584
1.00001708337
1.00001668228
1.00001628209
1.0000158824
1.00001548296
1.00001508354
1.00001468402
1.00001428429
1.0000138843
1.00001348401
1.00001308343
1.00001268255
1.00001228141
1.00001188002
1.00001147842
1.00001107665
1.00001067475
1.00001027276
1.00000987072
1.00000946869
1.00000906669
1.00000866477
1.00000826298
1.00000786134
1.0000074599
1.00000705868
1.00000665769
1.00000625695
1.00000585645
1.00000545615
1.00000505599
1.00000465589
1.00000425569
1.00000385518
1.00000345409
1.00000305204
1.00000264853
1.00000224301
1.00000183445
1.00000142274
1.00000100322
1.00000058301
1.00000010015
1.00002008534
1.00001959183
1.00001917154
1.00001874903
1.00001833476
1.00001792331
1.000017515
1.00001710884
1.00001670435
1.00001630106
1.0000158986
1.0000154967
1.00001509514
1.00001469374
1.00001429238
1.00001389099
1.00001348951
1.00001308789
1.00001268614
1.00001228423
1.00001188218
1.00001148
1.00001107772
1.00001067534
1.0000102729
1.00000987043
1.00000946794
1.00000906547
1.00000866303
1.00000826066
1.00000785836
1.00000745616
1.00000705405
1.00000665203
1.00000625008
1.00000584817
1.00000544623
1.00000504418
1.00000464189
1.0000042392
1.00000383589
1.00000343166
1.00000302616
1.00000261891
1.00000220944
1.00000179681
1.00000138115
1.00000095774
1.00000053486
1.00000004672
1.00002013312
1.00001963386
1.00001921159
1.00001878584
1.00001836834
1.00001795352
1.0000175419
1.00001713256
1.0000167251
1.00001631907
1.00001591414
1.00001551001
1.00001510646
1.00001470331
1.00001430043
1.0000138977
1.00001349506
1.00001309244
1.00001268981
1.00001228714
1.00001188442
1.00001148165
1.00001107883
1.00001067595
1.00001027304
1.0000098701
1.00000946714
1.00000906417
1.0000086612
1.00000825823
1.00000785527
1.0000074523
1.00000704932
1.00000664629
1.00000624317
1.00000583992
1.00000543644
1.00000503263
1.00000462835
1.00000422342
1.00000381761
1.00000341064
1.00000300216
1.00000259175
1.00000217898
1.00000176302
1.0000013442
1.00000091771
1.00000049279
1.00000000045
1.00002017493
1.00001967087
1.00001924704
1.00001881862
1.00001839848
1.00001798084
1.00001756643
1.00001715438
1.00001674434
1.00001633591
1.00001592877
1.00001552264
1.00001511729
1.00001471254
1.00001430823
1.00001390426
1.00001350052
1.00001309694
1.00001269346
1.00001229005
1.00001188667
1.00001148331
1.00001107994
1.00001067657
1.00001027317
1.00000986976
1.00000946632
1.00000906284
1.00000865933
1.00000825577
1.00000785215
1.00000744844
1.00000704461
1.00000664061
1.0000062364
1.00000583189
1.00000542699
1.00000502158
1.00000461551
1.00000420858
1.00000380058
1.00000339122
1.0000029802
1.00000256712
1.00000215162
1.00000173294
1.00000131156
1.00000088264
1.00000045614
0.999999960425
1.00002021136
1.00001970327
1.00001927819
1.0000188476
1.00001842528
1.0000180053
1.00001758853
1.00001717416
1.00001676191
1.00001635139
1.00001594231
1.0000155344
1.00001512744
1.00001472124
1.00001431564
1.00001391052
1.00001350576
1.00001310127
1.000012697
1.00001229288
1.00001188887
1.00001148493
1.00001108104
1.00001067717
1.0000102733
1.00000986941
1.0000094655
1.00000906153
1.00000865749
1.00000825335
1.00000784909
1.00000744467
1.00000704004
1.00000663515
1.00000622992
1.00000582427
1.00000541808
1.00000501123
1.00000460356
1.00000419488
1.00000378497
1.00000337356
1.00000296038
1.00000254505
1.0000021273
1.00000170639
1.00000128296
1.0000008521
1.00000042437
0.99999992592
1.00002024288
1.00001973139
1.00001930532
1.00001887294
1.00001844883
1.0000180269
1.00001760817
1.00001719185
1.00001677771
1.00001636539
1.00001595462
1.00001554516
1.00001513678
1.00001472928
1.00001432252
1.00001391635
1.00001351066
1.00001310535
1.00001270034
1.00001229556
1.00001189095
1.00001148647
1.00001108207
1.00001067773
1.00001027341
1.00000986907
1.0000094647
1.00000906026
1.00000865572
1.00000825104
1.00000784619
1.00000744111
1.00000703574
1.00000663002
1.00000622387
1.00000581718
1.00000540984
1.00000500172
1.00000459265
1.00000418245
1.00000377089
1.00000335775
1.00000294275
1.00000252556
1.00000210594
1.00000168322
1.00000125813
1.00000082572
1.00000039704
0.999999896366
1.00002026983
1.00001975552
1.00001932864
1.00001889481
1.00001846923
1.0000180457
1.00001762534
1.00001720738
1.00001679164
1.0000163778
1.00001596559
1.00001555478
1.00001514516
1.00001473654
1.00001432876
1.00001392166
1.00001351514
1.00001310909
1.0000127034
1.00001229802
1.00001189287
1.00001148789
1.00001108303
1.00001067825
1.0000102735
1.00000986875
1.00000946396
1.00000905908
1.00000865408
1.0000082489
1.0000078435
1.00000743782
1.00000703179
1.00000662533
1.00000621836
1.00000581076
1.00000540241
1.00000499318
1.0000045829
1.0000041714
1.00000375846
1.00000334385
1.00000292733
1.0000025086
1.00000208746
1.00000166328
1.00000123687
1.00000080322
1.0000003738
0.999999871315
1.0000202925
1.00001977585
1.00001934834
1.00001891333
1.00001848657
1.00001806173
1.00001764003
1.00001722073
1.00001680367
1.00001638854
1.00001597513
1.00001556318
1.00001515251
1.00001474292
1.00001433425
1.00001392636
1.00001351912
1.00001311241
1.00001270614
1.00001230022
1.00001189459
1.00001148916
1.00001108389
1.00001067871
1.00001027359
1.00000986846
1.00000946328
1.00000905801
1.00000865259
1.00000824697
1.00000784109
1.00000743488
1.00000702827
1.00000662116
1.00000621347
1.00000580509
1.00000539588
1.00000498571
1.00000457441
1.00000416181
1.00000374772
1.0000033319
1.00000291413
1.00000249415
1.00000207179
1.00000164643
1.00000121897
1.00000078434
1.00000035434
0.999999850409
1.0000203111
1.00001979257
1.00001936456
1.00001892861
1.0000185009
1.00001807503
1.00001765226
1.00001723187
1.00001681373
1.00001639757
1.00001598316
1.00001557028
1.00001515874
1.00001474835
1.00001433894
1.00001393038
1.00001352252
1.00001311526
1.00001270849
1.00001230212
1.00001189607
1.00001149026
1.00001108463
1.00001067911
1.00001027365
1.0000098682
1.00000946269
1.00000905708
1.0000086513
1.0000082453
1.00000783901
1.00000743234
1.00000702523
1.00000661759
1.0000062093
1.00000580026
1.00000539033
1.00000497938
1.00000456725
1.00000415376
1.00000373872
1.00000332192
1.00000290316
1.00000248218
1.00000205885
1.00000163256
1.00000120428
1.00000076889
1.00000033845
0.99999983337
1.0000203258
1.00001980579
1.00001937741
1.00001894073
1.0000185123
1.00001808563
1.00001766202
1.00001724079
1.00001682181
1.00001640484
1.00001598964
1.00001557602
1.00001516379
1.00001475275
1.00001434276
1.00001393365
1.00001352531
1.0000131176
1.00001271042
1.00001230368
1.00001189729
1.00001149116
1.00001108523
1.00001067944
1.00001027371
1.00000986798
1.00000946221
1.00000905631
1.00000865024
1.00000824392
1.00000783729
1.00000743026
1.00000702275
1.00000661466
1.00000620589
1.00000579633
1.00000538583
1.00000497426
1.00000456146
1.00000414727
1.00000373149
1.00000331393
1.0000028944
1.00000247265
1.00000204857
1.00000162158
1.00000119267
1.00000075671
1.00000032594
0.999999819979
1.00002033672
1.00001981563
1.00001938697
1.00001894977
1.00001852081
1.00001809355
1.00001766933
1.00001724748
1.00001682789
1.00001641031
1.00001599453
1.00001558036
1.00001516761
1.00001475609
1.00001434566
1.00001393614
1.00001352743
1.00001311938
1.00001271189
1.00001230487
1.00001189822
1.00001149185
1.0000110857
1.00001067969
1.00001027375
1.00000986782
1.00000946183
1.00000905572
1.00000864942
1.00000824287
1.00000783598
1.00000742867
1.00000702085
1.00000661243
1.0000062033
1.00000579334
1.00000538241
1.00000497038
1.00000455709
1.00000414238
1.00000372606
1.00000330794
1.00000288784
1.00000246553
1.00000204091
1.00000161342
1.00000118406
1.00000074768
1.00000031667
0.999999810071
1.00002034395
1.00001982215
1.00001939331
1.00001895577
1.00001852647
1.00001809882
1.0000176742
1.00001725194
1.00001683194
1.00001641397
1.00001599781
1.00001558327
1.00001517018
1.00001475834
1.00001434761
1.00001393782
1.00001352886
1.00001312058
1.00001271289
1.00001230568
1.00001189885
1.00001149232
1.00001108601
1.00001067985
1.00001027377
1.0000098677
1.00000946157
1.00000905532
1.00000864887
1.00000824215
1.00000783509
1.00000742759
1.00000701957
1.00000661093
1.00000620155
1.00000579133
1.00000538012
1.00000496778
1.00000455416
1.0000041391
1.00000372243
1.00000330394
1.00000288348
1.0000024608
1.00000203583
1.000001608
1.00000117835
1.00000074171
1.00000031055
0.999999803529
1.00002034755
1.0000198254
1.00001939648
1.00001895876
1.00001852929
1.00001810145
1.00001767664
1.00001725417
1.00001683397
1.0000164158
1.00001599945
1.00001558473
1.00001517147
1.00001475947
1.00001434859
1.00001393867
1.00001352958
1.00001312119
1.00001271339
1.00001230608
1.00001189916
1.00001149255
1.00001108617
1.00001067994
1.00001027379
1.00000986764
1.00000946144
1.00000905512
1.00000864859
1.00000824179
1.00000783464
1.00000742705
1.00000701892
1.00000661017
1.00000620067
1.00000579031
1.00000537896
1.00000496647
1.0000045527
1.00000413747
1.00000372061
1.00000330195
1.00000288129
1.00000245844
1.00000203329
1.0000016053
1.00000117551
1.00000073873
1.0000003075
0.999999800277
1.00002034755
1.0000198254
1.00001939648
1.00001895876
1.00001852929
1.00001810145
1.00001767664
1.00001725417
1.00001683397
1.0000164158
1.00001599945
1.00001558473
1.00001517147
1.00001475947
1.00001434859
1.00001393867
1.00001352958
1.00001312119
1.00001271339
1.00001230608
1.00001189916
1.00001149255
1.00001108617
1.00001067994
1.00001027379
1.00000986764
1.00000946144
1.00000905512
1.00000864859
1.00000824179
1.00000783464
1.00000742705
1.00000701892
1.00000661017
1.00000620067
1.00000579031
1.00000537896
1.00000496647
1.0000045527
1.00000413747
1.00000372061
1.00000330195
1.00000288129
1.00000245844
1.00000203329
1.0000016053
1.00000117551
1.00000073873
1.0000003075
0.999999800277
1.00002034395
1.00001982215
1.00001939331
1.00001895577
1.00001852647
1.00001809882
1.0000176742
1.00001725194
1.00001683194
1.00001641397
1.00001599781
1.00001558327
1.00001517018
1.00001475834
1.00001434761
1.00001393782
1.00001352886
1.00001312058
1.00001271289
1.00001230568
1.00001189885
1.00001149232
1.00001108601
1.00001067985
1.00001027377
1.0000098677
1.00000946157
1.00000905532
1.00000864887
1.00000824215
1.00000783509
1.00000742759
1.00000701957
1.00000661093
1.00000620155
1.00000579133
1.00000538012
1.00000496778
1.00000455416
1.0000041391
1.00000372243
1.00000330394
1.00000288348
1.0000024608
1.00000203583
1.000001608
1.00000117835
1.00000074171
1.00000031055
0.999999803529
1.00002033672
1.00001981563
1.00001938697
1.00001894977
1.00001852081
1.00001809355
1.00001766933
1.00001724748
1.00001682789
1.00001641031
1.00001599453
1.00001558036
1.00001516761
1.00001475609
1.00001434566
1.00001393614
1.00001352743
1.00001311938
1.00001271189
1.00001230487
1.00001189822
1.00001149185
1.0000110857
1.00001067969
1.00001027375
1.00000986782
1.00000946183
1.00000905572
1.00000864942
1.00000824287
1.00000783598
1.00000742867
1.00000702085
1.00000661243
1.0000062033
1.00000579334
1.00000538241
1.00000497038
1.00000455709
1.00000414238
1.00000372606
1.00000330794
1.00000288784
1.00000246553
1.00000204091
1.00000161342
1.00000118406
1.00000074768
1.00000031667
0.999999810071
1.0000203258
1.00001980579
1.00001937741
1.00001894073
1.0000185123
1.00001808563
1.00001766202
1.00001724079
1.00001682181
1.00001640484
1.00001598964
1.00001557602
1.00001516379
1.00001475275
1.00001434276
1.00001393365
1.00001352531
1.0000131176
1.00001271042
1.00001230368
1.00001189729
1.00001149116
1.00001108523
1.00001067944
1.00001027371
1.00000986798
1.00000946221
1.00000905631
1.00000865024
1.00000824392
1.00000783729
1.00000743026
1.00000702275
1.00000661466
1.00000620589
1.00000579633
1.00000538583
1.00000497426
1.00000456146
1.00000414727
1.00000373149
1.00000331393
1.0000028944
1.00000247265
1.00000204857
1.00000162158
1.00000119267
1.00000075671
1.00000032594
0.999999819979
1.0000203111
1.00001979257
1.00001936456
1.00001892861
1.0000185009
1.00001807503
1.00001765226
1.00001723187
1.00001681373
1.00001639757
1.00001598316
1.00001557028
1.00001515874
1.00001474835
1.00001433894
1.00001393038
1.00001352252
1.00001311526
1.00001270849
1.00001230212
1.00001189607
1.00001149026
1.00001108463
1.00001067911
1.00001027365
1.0000098682
1.00000946269
1.00000905708
1.0000086513
1.0000082453
1.00000783901
1.00000743234
1.00000702523
1.00000661759
1.0000062093
1.00000580026
1.00000539033
1.00000497938
1.00000456725
1.00000415376
1.00000373872
1.00000332192
1.00000290316
1.00000248218
1.00000205885
1.00000163256
1.00000120428
1.00000076889
1.00000033845
0.99999983337
1.0000202925
1.00001977585
1.00001934834
1.00001891333
1.00001848657
1.00001806173
1.00001764003
1.00001722073
1.00001680367
1.00001638854
1.00001597513
1.00001556318
1.00001515251
1.00001474292
1.00001433425
1.00001392636
1.00001351912
1.00001311241
1.00001270614
1.00001230022
1.00001189459
1.00001148916
1.00001108389
1.00001067871
1.00001027359
1.00000986846
1.00000946328
1.00000905801
1.00000865259
1.00000824697
1.00000784109
1.00000743488
1.00000702827
1.00000662116
1.00000621347
1.00000580509
1.00000539588
1.00000498571
1.00000457441
1.00000416181
1.00000374772
1.0000033319
1.00000291413
1.00000249415
1.00000207179
1.00000164643
1.00000121897
1.00000078434
1.00000035434
0.999999850409
1.00002026983
1.00001975552
1.00001932864
1.00001889481
1.00001846923
1.0000180457
1.00001762534
1.00001720738
1.00001679164
1.0000163778
1.00001596559
1.00001555478
1.00001514516
1.00001473654
1.00001432876
1.00001392166
1.00001351514
1.00001310909
1.0000127034
1.00001229802
1.00001189287
1.00001148789
1.00001108303
1.00001067825
1.0000102735
1.00000986875
1.00000946396
1.00000905908
1.00000865408
1.0000082489
1.0000078435
1.00000743782
1.00000703179
1.00000662533
1.00000621836
1.00000581076
1.00000540241
1.00000499318
1.0000045829
1.0000041714
1.00000375846
1.00000334385
1.00000292733
1.0000025086
1.00000208746
1.00000166328
1.00000123687
1.00000080322
1.0000003738
0.999999871315
1.00002024288
1.00001973139
1.00001930532
1.00001887294
1.00001844883
1.0000180269
1.00001760817
1.00001719185
1.00001677771
1.00001636539
1.00001595462
1.00001554516
1.00001513678
1.00001472928
1.00001432252
1.00001391635
1.00001351066
1.00001310535
1.00001270034
1.00001229556
1.00001189095
1.00001148647
1.00001108207
1.00001067773
1.00001027341
1.00000986907
1.0000094647
1.00000906026
1.00000865572
1.00000825104
1.00000784619
1.00000744111
1.00000703574
1.00000663002
1.00000622387
1.00000581718
1.00000540984
1.00000500172
1.00000459265
1.00000418245
1.00000377089
1.00000335775
1.00000294275
1.00000252556
1.00000210594
1.00000168322
1.00000125813
1.00000082572
1.00000039704
0.999999896366
1.00002021136
1.00001970327
1.00001927819
1.0000188476
1.00001842528
1.0000180053
1.00001758853
1.00001717416
1.00001676191
1.00001635139
1.00001594231
1.0000155344
1.00001512744
1.00001472124
1.00001431564
1.00001391052
1.00001350576
1.00001310127
1.000012697
1.00001229288
1.00001188887
1.00001148493
1.00001108104
1.00001067717
1.0000102733
1.00000986941
1.0000094655
1.00000906153
1.00000865749
1.00000825335
1.00000784909
1.00000744467
1.00000704004
1.00000663515
1.00000622992
1.00000582427
1.00000541808
1.00000501123
1.00000460356
1.00000419488
1.00000378497
1.00000337356
1.00000296038
1.00000254505
1.0000021273
1.00000170639
1.00000128296
1.0000008521
1.00000042437
0.99999992592
1.00002017493
1.00001967087
1.00001924704
1.00001881862
1.00001839848
1.00001798084
1.00001756643
1.00001715438
1.00001674434
1.00001633591
1.00001592877
1.00001552264
1.00001511729
1.00001471254
1.00001430823
1.00001390426
1.00001350052
1.00001309694
1.00001269346
1.00001229005
1.00001188667
1.00001148331
1.00001107994
1.00001067657
1.00001027317
1.00000986976
1.00000946632
1.00000906284
1.00000865933
1.00000825577
1.00000785215
1.00000744844
1.00000704461
1.00000664061
1.0000062364
1.00000583189
1.00000542699
1.00000502158
1.00000461551
1.00000420858
1.00000380058
1.00000339122
1.0000029802
1.00000256712
1.00000215162
1.00000173294
1.00000131156
1.00000088264
1.00000045614
0.999999960425
1.00002013312
1.00001963386
1.00001921159
1.00001878584
1.00001836834
1.00001795352
1.0000175419
1.00001713256
1.0000167251
1.00001631907
1.00001591414
1.00001551001
1.00001510646
1.00001470331
1.00001430043
1.0000138977
1.00001349506
1.00001309244
1.00001268981
1.00001228714
1.00001188442
1.00001148165
1.00001107883
1.00001067595
1.00001027304
1.0000098701
1.00000946714
1.00000906417
1.0000086612
1.00000825823
1.00000785527
1.0000074523
1.00000704932
1.00000664629
1.00000624317
1.00000583992
1.00000543644
1.00000503263
1.00000462835
1.00000422342
1.00000381761
1.00000341064
1.00000300216
1.00000259175
1.00000217898
1.00000176302
1.0000013442
1.00000091771
1.00000049279
1.00000000045
1.00002008534
1.00001959183
1.00001917154
1.00001874903
1.00001833476
1.00001792331
1.000017515
1.00001710884
1.00001670435
1.00001630106
1.0000158986
1.0000154967
1.00001509514
1.00001469374
1.00001429238
1.00001389099
1.00001348951
1.00001308789
1.00001268614
1.00001228423
1.00001188218
1.00001148
1.00001107772
1.00001067534
1.0000102729
1.00000987043
1.00000946794
1.00000906547
1.00000866303
1.00000826066
1.00000785836
1.00000745616
1.00000705405
1.00000665203
1.00000625008
1.00000584817
1.00000544623
1.00000504418
1.00000464189
1.0000042392
1.00000383589
1.00000343166
1.00000302616
1.00000261891
1.00000220944
1.00000179681
1.00000138115
1.00000095774
1.00000053486
1.00000004672
1.00002003084
1.00001954426
1.00001912648
1.00001870799
1.00001829764
1.00001789024
1.00001748584
1.00001708337
1.00001668228
1.00001628209
1.0000158824
1.00001548296
1.00001508354
1.00001468402
1.00001428429
1.0000138843
1.00001348401
1.00001308343
1.00001268255
1.00001228141
1.00001188002
1.00001147842
1.00001107665
1.00001067475
1.00001027276
1.00000987072
1.00000946869
1.00000906669
1.00000866477
1.00000826298
1.00000786134
1.0000074599
1.00000705868
1.00000665769
1.00000625695
1.00000585645
1.00000545615
1.00000505599
1.00000465589
1.00000425569
1.00000385518
1.00000345409
1.00000305204
1.00000264853
1.00000224301
1.00000183445
1.00000142274
1.00000100322
1.00000058301
1.00000010015
1.00001996862
1.00001949049
1.00001907596
1.00001866246
1.00001825691
1.00001785439
1.00001745458
1.00001705638
1.00001665918
1.00001626245
1.00001586582
1.00001546904
1.00001507194
1.0000146744
1.00001427636
1.00001387781
1.00001347874
1.00001307919
1.00001267919
1.00001227878
1.00001187802
1.00001147696
1.00001107567
1.00001067421
1.00001027262
1.00000987099
1.00000946935
1.00000906779
1.00000866635
1.00000826509
1.00000786409
1.00000746338
1.00000706303
1.00000666308
1.00000626357
1.00000586452
1.00000546593
1.0000050678
1.00000467004
1.00000427257
1.00000387519
1.00000347765
1.00000307958
1.00000268046
1.00000227966
1.00000187607
1.00000146931
1.00000105474
1.00000063807
1.00000016194
1.00001989735
1.00001942973
1.00001901943
1.00001861221
1.00001821257
1.00001781589
1.0000174215
1.00001702822
1.0000166354
1.00001624252
1.00001584923
1.00001545531
1.00001506064
1.00001466516
1.00001426886
1.00001387175
1.00001347389
1.00001307534
1.00001267616
1.00001227645
1.00001187626
1.0000114757
1.00001107483
1.00001067374
1.0000102725
1.0000098712
1.00000946991
1.00000906872
1.00000866769
1.00000826693
1.00000786649
1.00000746647
1.00000706695
1.000006668
1.0000062697
1.00000587211
1.00000547528
1.00000507925
1.00000468399
1.00000428945
1.00000389552
1.00000350195
1.00000310843
1.00000271442
1.00000231925
1.00000192175
1.00000152117
1.00000111299
1.00000070103
1.00000023366
1.00001981524
1.00001936096
1.0000189563
1.00001855702
1.00001816468
1.00001777502
1.00001738697
1.00001699933
1.00001661142
1.00001622276
1.00001583305
1.00001544216
1.00001505002
1.00001465663
1.00001426206
1.00001386637
1.00001346966
1.00001307205
1.00001267363
1.00001227453
1.00001187485
1.00001147469
1.00001107417
1.00001067337
1.0000102724
1.00000987136
1.00000947033
1.00000906943
1.00000866874
1.00000826837
1.00000786843
1.00000746901
1.00000707024
1.00000667223
1.00000627508
1.00000587892
1.00000548385
1.00000508995
1.00000469728
1.00000430587
1.00000391565
1.00000352648
1.00000313809
1.00000275
1.00000236152
1.00000197143
1.00000157862
1.00000117873
1.00000077315
1.00000031742
1.00001971985
1.00001928294
1.00001888589
1.00001849679
1.00001811348
1.00001773226
1.00001735159
1.00001697035
1.00001658787
1.00001620376
1.00001581786
1.00001543009
1.0000150405
1.00001464919
1.00001425628
1.00001386193
1.00001346628
1.00001306951
1.00001267175
1.00001227316
1.00001187387
1.00001147402
1.00001107374
1.00001067314
1.00001027234
1.00000987145
1.00000947059
1.00000906988
1.00000866942
1.00000826935
1.00000786978
1.00000747086
1.00000707272
1.00000667553
1.00000627944
1.00000588461
1.00000549123
1.00000509944
1.00000470939
1.00000432121
1.00000393494
1.00000355056
1.00000316789
1.00000278657