/*--------------------------------*- C++ -*----------------------------------*\
| =========                 |                                                 |
| \\      /  F ield         | OpenFOAM: The Open Source CFD Toolbox           |
|  \\    /   O peration     | Version:  2.4.0                                 |
|   \\  /    A nd           | Web:      www.OpenFOAM.org                      |
|    \\/     M anipulation  |                                                 |
\*---------------------------------------------------------------------------*/
FoamFile
{
    version     2.0;
    format      ascii;
    class       volVectorField;
    location    "800";
    object      U;
}
// * * * * * * * * * * * * * * * * * * * * * * * * * * * * * * * * * * * * * //

dimensions      [0 1 -1 0 0 0 0];

internalField   nonuniform List<vector> 
2500
(
(-0.112385521505 -0.013800522808 0)
(-0.0855495832018 -0.00940360104424 0)
(-0.0703107606271 -0.00481233419706 0)
(-0.0615798964785 -0.00270613750025 0)
(-0.0560414557809 -0.0016112858497 0)
(-0.0523519725317 -0.00105442909342 0)
(-0.0497104933325 -0.000731519659152 0)
(-0.0477494214661 -0.00053370783304 0)
(-0.0462449675552 -0.000401107509472 0)
(-0.0450696657346 -0.000307732246864 0)
(-0.0441396341137 -0.000238556025151 0)
(-0.0433992691953 -0.00018562804726 0)
(-0.0428090997094 -0.000143949224726 0)
(-0.042340517318 -0.000110424949923 0)
(-0.0419720677678 -8.29534443266e-05 0)
(-0.0416873828012 -6.00893125622e-05 0)
(-0.0414737508785 -4.07874930345e-05 0)
(-0.0413211978177 -2.42773497938e-05 0)
(-0.0412218378069 -9.97289666864e-06 0)
(-0.0411694211234 2.58040183923e-06 0)
(-0.0411590056009 1.37431815012e-05 0)
(-0.0411867173733 2.38071179902e-05 0)
(-0.0412495737549 3.30129184906e-05 0)
(-0.0413453523394 4.15632073158e-05 0)
(-0.0414724947862 4.96321849378e-05 0)
(-0.0416300378554 5.73729769911e-05 0)
(-0.0418175665415 6.49234158904e-05 0)
(-0.0420351860029 7.24106961797e-05 0)
(-0.0422835102748 7.99552261607e-05 0)
(-0.042563666807 8.76738517591e-05 0)
(-0.0428773167839 9.56825346758e-05 0)
(-0.0432266919119 0.00010409833474 0)
(-0.0436146492204 0.000113040369059 0)
(-0.0440447455988 0.000122628558063 0)
(-0.0445213348151 0.000132978539941 0)
(-0.0450496875613 0.000144187738426 0)
(-0.0456361382729 0.000156307932409 0)
(-0.0462882532149 0.000169288319854 0)
(-0.0470150407693 0.0001828890809 0)
(-0.0478272154886 0.000196538253079 0)
(-0.0487377199605 0.000209246480737 0)
(-0.0497628748867 0.000219675931163 0)
(-0.0509254969382 0.000227319214259 0)
(-0.0522632425256 0.000235929384245 0)
(-0.053846925594 0.000264130067441 0)
(-0.0558319030979 0.00036830312103 0)
(-0.0585210177805 0.000691407742853 0)
(-0.0626372235908 0.0015357030455 0)
(-0.0690703498212 0.00357142970819 0)
(-0.0807034055746 0.00816776084042 0)
(-0.256880129553 -0.0429325430341 0)
(-0.226631085166 -0.0309197582984 0)
(-0.205649790384 -0.0182758892503 0)
(-0.190670319471 -0.011922886872 0)
(-0.179642420114 -0.00802730202484 0)
(-0.171438033327 -0.0057299543977 0)
(-0.165168956933 -0.00421900427897 0)
(-0.160308998558 -0.00319097891625 0)
(-0.156486020891 -0.0024475925675 0)
(-0.153454254936 -0.00189196542744 0)
(-0.151038774115 -0.00146191674979 0)
(-0.149114903933 -0.0011209519905 0)
(-0.147590344283 -0.00084458114322 0)
(-0.146395738866 -0.00061656703723 0)
(-0.145477836328 -0.000425389863203 0)
(-0.144795236934 -0.000262763303378 0)
(-0.144315386825 -0.000122491562434 0)
(-0.144012532529 1.51538828152e-07 0)
(-0.143866249246 0.000108868906544 0)
(-0.143860384294 0.000206622408243 0)
(-0.143982279149 0.000295835524625 0)
(-0.144222195041 0.000378534376982 0)
(-0.144572886214 0.000456452442266 0)
(-0.145029285685 0.000531109139786 0)
(-0.145588278631 0.000603871619618 0)
(-0.146248547083 0.00067600499508 0)
(-0.147010475091 0.000748715250348 0)
(-0.147876107891 0.00082318778408 0)
(-0.148849162106 0.000900624099712 0)
(-0.149935087087 0.000982278797218 0)
(-0.15114118075 0.00106949905937 0)
(-0.152476766627 0.00116376881356 0)
(-0.153953443764 0.00126676041001 0)
(-0.155585426357 0.00138039641838 0)
(-0.157390001415 0.00150692672249 0)
(-0.159388142556 0.00164902385131 0)
(-0.161605353398 0.00180991256404 0)
(-0.164072830565 0.0019935403673 0)
(-0.166829161536 0.00220487212445 0)
(-0.169922767174 0.00245036229086 0)
(-0.173415724274 0.00273908648018 0)
(-0.177389306133 0.00308488053396 0)
(-0.181952590722 0.00351196905828 0)
(-0.187253851124 0.00406532194531 0)
(-0.193491929717 0.00483626328476 0)
(-0.200929150645 0.00600106296833 0)
(-0.20983322627 0.00790957000637 0)
(-0.220500048103 0.0111451457928 0)
(-0.232553543985 0.016727365996 0)
(-0.246113733551 0.0250265233795 0)
(-0.324278219386 -0.0622387500253 0)
(-0.307514736745 -0.047661788822 0)
(-0.29304811484 -0.0313359594264 0)
(-0.280645537402 -0.0222944585944 0)
(-0.270499761897 -0.0159768362745 0)
(-0.262361537058 -0.0118883792135 0)
(-0.255837130285 -0.00898673032708 0)
(-0.250609743585 -0.00690012145622 0)
(-0.246411670501 -0.00532761178918 0)
(-0.243043042853 -0.00411465162325 0)
(-0.240349114175 -0.00315254493333 0)
(-0.238212065961 -0.0023743180234 0)
(-0.236540303515 -0.00173282702926 0)
(-0.235262267666 -0.00119569539223 0)
(-0.234321371534 -0.000739247972062 0)
(-0.233672610628 -0.000346011393116 0)
(-0.233280010458 -2.62436479409e-06 0)
(-0.233114796663 0.000301315604074 0)
(-0.233154022473 0.000574113027977 0)
(-0.23337954717 0.000822530581019 0)
(-0.233777262081 0.00105219838944 0)
(-0.234336505203 0.00126790520376 0)
(-0.235049618288 0.00147381950963 0)
(-0.235911616183 0.00167365945277 0)
(-0.236919946387 0.00187082982277 0)
(-0.238074323827 0.00206853650603 0)
(-0.23937663057 0.00226988711022 0)
(-0.240830873972 0.0024779841008 0)
(-0.242443199796 0.00269601608417 0)
(-0.244221959402 0.0029273524006 0)
(-0.246177832763 0.00317564658824 0)
(-0.248324011188 0.00344495485796 0)
(-0.250676447458 0.00373987785875 0)
(-0.25325418235 0.00406573543667 0)
(-0.256079765988 0.0044287913878 0)
(-0.259179787136 0.00483654654678 0)
(-0.262585557154 0.00529814725067 0)
(-0.266333944818 0.00582494917929 0)
(-0.270468496215 0.00643140340037 0)
(-0.275040647703 0.00713634909008 0)
(-0.28011142501 0.00796537302376 0)
(-0.285752182063 0.00895422269929 0)
(-0.292045413995 0.0101558609341 0)
(-0.299077649697 0.0116487656877 0)
(-0.306926594471 0.0135564936205 0)
(-0.315609408649 0.0160539956166 0)
(-0.324994890514 0.0194093847834 0)
(-0.334604409349 0.0238745053114 0)
(-0.343353768261 0.0298057806472 0)
(-0.349599374634 0.0365469678771 0)
(-0.362298278874 -0.0692262389813 0)
(-0.357568645747 -0.0553748001584 0)
(-0.35089245424 -0.0390715515087 0)
(-0.343527524895 -0.0293102985594 0)
(-0.336629800079 -0.021822238409 0)
(-0.330561319655 -0.0166712018234 0)
(-0.325407121877 -0.012805016174 0)
(-0.321115874107 -0.00991175085918 0)
(-0.317589073276 -0.00765809308347 0)
(-0.314725390284 -0.00587476934807 0)
(-0.312431488585 -0.0044300846195 0)
(-0.310627542847 -0.0032409572641 0)
(-0.30924644015 -0.00224593746477 0)
(-0.3082326226 -0.00140170244013 0)
(-0.307540265224 -0.000675594986015 0)
(-0.307131738623 -4.29658314844e-05 0)
(-0.306976239194 0.000515447478819 0)
(-0.30704868636 0.00101491942032 0)
(-0.307328821125 0.00146785202756 0)
(-0.307800485956 0.00188449780184 0)
(-0.308451046807 0.00227350996147 0)
(-0.309270932219 0.00264233928793 0)
(-0.310253266165 0.00299754204136 0)
(-0.311393577482 0.00334501998525 0)
(-0.312689571758 0.00369021655722 0)
(-0.314140954637 0.00403828209122 0)
(-0.315749297472 0.00439421944953 0)
(-0.317517937604 0.00476301808489 0)
(-0.319451906423 0.005149783601 0)
(-0.32155787837 0.00555986896285 0)
(-0.323844133914 0.00599901364987 0)
(-0.326320527449 0.00647349714692 0)
(-0.328998450685 0.0069903150282 0)
(-0.33189077392 0.00755738611946 0)
(-0.335011751978 0.00818380626078 0)
(-0.338376848695 0.00888016093212 0)
(-0.342002472662 0.00965893770733 0)
(-0.345905464536 0.0105350504308 0)
(-0.350102412363 0.0115266143627 0)
(-0.354608104147 0.0126559172884 0)
(-0.35943375132 0.0139511206306 0)
(-0.36458165841 0.0154480101023 0)
(-0.370040416155 0.0171939846945 0)
(-0.375764251581 0.0192491162006 0)
(-0.381662431503 0.0216945738594 0)
(-0.387517103026 0.0246147552778 0)
(-0.392999402473 0.0281148298699 0)
(-0.397338496831 0.032167768599 0)
(-0.399856223611 0.0367438655607 0)
(-0.398480535059 0.0409944326261 0)
(-0.388628203032 -0.0686829047054 0)
(-0.391917571355 -0.0569596903773 0)
(-0.391273037138 -0.0423678023074 0)
(-0.388515100859 -0.0329895753311 0)
(-0.384963748738 -0.0252678939936 0)
(-0.381307261826 -0.019675219781 0)
(-0.377917198531 -0.0152758656306 0)
(-0.374935046809 -0.0118684724252 0)
(-0.372401550472 -0.00913651990992 0)
(-0.370305959648 -0.00692583619938 0)
(-0.368617043527 -0.0051013941202 0)
(-0.367296791932 -0.00357669514369 0)
(-0.366307198017 -0.00228423578214 0)
(-0.365613114805 -0.00117528524141 0)
(-0.365183336521 -0.000211959567871 0)
(-0.364990798742 0.000634934810645 0)
(-0.36501239597 0.00138868185365 0)
(-0.365228639628 0.00206804172263 0)
(-0.365623272687 0.00268846160555 0)
(-0.366182890593 0.00326285390468 0)
(-0.366896591276 0.00380221232802 0)
(-0.367755660659 0.00431605944218 0)
(-0.368753293563 0.00481280026451 0)
(-0.369884346007 0.00529999907193 0)
(-0.371145113403 0.00578460589892 0)
(-0.37253312816 0.00627314524545 0)
(-0.37404696966 0.00677187884188 0)
(-0.375686078853 0.00728695012978 0)
(-0.377450568992 0.00782451695032 0)
(-0.379341022487 0.0083908773691 0)
(-0.381358262803 0.00899259309106 0)
(-0.383503086375 0.00963661404651 0)
(-0.385775939811 0.0103304085352 0)
(-0.388176515171 0.011082101614 0)
(-0.39070324831 0.0119006297038 0)
(-0.393352654691 0.0127959112813 0)
(-0.39611851902 0.0137790591648 0)
(-0.398990712918 0.014862615148 0)
(-0.401953879405 0.0160609092931 0)
(-0.404984981395 0.0173903946913 0)
(-0.408051273764 0.0188703937399 0)
(-0.411103723745 0.0205232850849 0)
(-0.414075179295 0.0223761128959 0)
(-0.416857435329 0.024457817142 0)
(-0.419312708516 0.0268022596203 0)
(-0.421178616096 0.029424394506 0)
(-0.422205894494 0.032329160492 0)
(-0.421699694365 0.0353776166507 0)
(-0.419618006206 0.0383892081417 0)
(-0.413911326356 0.0406849538479 0)
(-0.407644387758 -0.0642088028379 0)
(-0.415755587826 -0.0549458548111 0)
(-0.419255541092 -0.0425860585661 0)
(-0.420007822987 -0.0340899144539 0)
(-0.419201129149 -0.0266849657949 0)
(-0.417664814608 -0.0210675755797 0)
(-0.415894992022 -0.0164729459491 0)
(-0.414149680089 -0.0128062446125 0)
(-0.412562145608 -0.00979295765119 0)
(-0.41118948357 -0.00730733826984 0)
(-0.410050420126 -0.00522349409125 0)
(-0.409142832618 -0.0034598658402 0)
(-0.408454910364 -0.00194914592031 0)
(-0.407970609494 -0.000641653197903 0)
(-0.407672804985 0.000502424818235 0)
(-0.407544810112 0.00151435839961 0)
(-0.407571148097 0.00241955401953 0)
(-0.407737847808 0.00323875590866 0)
(-0.408032508633 0.00398923024297 0)
(-0.408444230012 0.00468551254546 0)
(-0.408963476462 0.00534002700808 0)
(-0.409581909046 0.00596353767468 0)
(-0.410292202964 0.00656551104856 0)
(-0.411087859269 0.007154399754 0)
(-0.411963014108 0.00773787377579 0)
(-0.41291224507 0.00832300969757 0)
(-0.413930372251 0.00891644915144 0)
(-0.415012250026 0.00952453305505 0)
(-0.416152544603 0.0101534172168 0)
(-0.417345491009 0.0108091730911 0)
(-0.418584623258 0.0114978768547 0)
(-0.419862468124 0.0122256888459 0)
(-0.421170197177 0.0129989259991 0)
(-0.422497218163 0.0138241278742 0)
(-0.423830712272 0.0147081218201 0)
(-0.425155057885 0.0156580840137 0)
(-0.426451216852 0.0166816170758 0)
(-0.427695822381 0.0177868183406 0)
(-0.42886042254 0.0189824237262 0)
(-0.429909583997 0.0202778619169 0)
(-0.430800381764 0.0216835768255 0)
(-0.431476612462 0.0232106589885 0)
(-0.431871831046 0.024871404581 0)
(-0.43188616696 0.0266756622102 0)
(-0.431416738453 0.0286310860807 0)
(-0.430251333148 0.0307217719744 0)
(-0.428283283935 0.0329088250322 0)
(-0.424970948619 0.0350388514985 0)
(-0.42068139379 0.0368928869412 0)
(-0.413588566956 0.0380573001709 0)
(-0.420613768285 -0.0580701593017 0)
(-0.43116537643 -0.0511055983192 0)
(-0.437212811457 -0.0409672930879 0)
(-0.440372485415 -0.0335237732804 0)
(-0.441594636626 -0.0267064190995 0)
(-0.441712856598 -0.0213090270499 0)
(-0.441243579596 -0.0167469600077 0)
(-0.440502637738 -0.0130093079401 0)
(-0.439675502825 -0.00987314143165 0)
(-0.438864904674 -0.00724376362927 0)
(-0.438125723617 -0.00501079422721 0)
(-0.437483849785 -0.00310187494169 0)
(-0.43694890726 -0.00145377620154 0)
(-0.436521163366 -1.87777886953e-05 0)
(-0.436195906797 0.00124250685922 0)
(-0.435965868063 0.00236157381608 0)
(-0.435822676567 0.00336444885933 0)
(-0.435757650138 0.0042726254413 0)
(-0.435762226284 0.00510414770769 0)
(-0.435828159747 0.00587427721136 0)
(-0.435947587889 0.00659607610386 0)
(-0.436113012864 0.00728083334987 0)
(-0.436317235243 0.00793841465733 0)
(-0.436553257287 0.00857753708727 0)
(-0.436814167483 0.00920599365962 0)
(-0.437093012273 0.00983083580551 0)
(-0.437382658189 0.0104585240663 0)
(-0.437675645436 0.0110950527735 0)
(-0.437964033152 0.0117460539567 0)
(-0.438239235211 0.0124168840818 0)
(-0.438491846476 0.0131126968486 0)
(-0.438711455886 0.0138385043731 0)
(-0.438886449648 0.0145992298029 0)
(-0.439003790943 0.0153997527251 0)
(-0.439048797284 0.0162449531623 0)
(-0.439004851558 0.0171397519298 0)
(-0.438853159956 0.0180891646154 0)
(-0.438572239607 0.0190983441567 0)
(-0.438137736754 0.020172672338 0)
(-0.437520988611 0.0213177459807 0)
(-0.43668955237 0.0225394904425 0)
(-0.435601685575 0.0238435950966 0)
(-0.434212193297 0.0252352767299 0)
(-0.432448461212 0.0267156295452 0)
(-0.430250956976 0.028279321895 0)
(-0.427462060028 0.0298984920203 0)
(-0.424071773403 0.0315148135026 0)
(-0.419665851917 0.03299384037 0)
(-0.414768410045 0.0341234517619 0)
(-0.407848392118 0.0347093660327 0)
(-0.428333654556 -0.0515459691607 0)
(-0.439658120526 -0.046501542763 0)
(-0.447016766014 -0.0383529833701 0)
(-0.451653143144 -0.0319727025973 0)
(-0.454251921152 -0.0258586440953 0)
(-0.455558472664 -0.0208224629802 0)
(-0.456050131729 -0.0164431974457 0)
(-0.456057081281 -0.0127705334963 0)
(-0.455786896297 -0.00963387982613 0)
(-0.455369369509 -0.00696750728731 0)
(-0.454883344077 -0.0046791833531 0)
(-0.454375287423 -0.00270749593293 0)
(-0.453871547794 -0.000995488725024 0)
(-0.453385857305 0.000500863721199 0)
(-0.452924227687 0.00181897929287 0)
(-0.452487912608 0.00298932293401 0)
(-0.452075301044 0.00403748224573 0)
(-0.451683063286 0.0049848223294 0)
(-0.451306862512 0.00584942722921 0)
(-0.450941774774 0.00664666288227 0)
(-0.450582532327 0.00738970311329 0)
(-0.450223651188 0.00808991699672 0)
(-0.449859486862 0.00875719618079 0)
(-0.449484243745 0.00940021483658 0)
(-0.449091955602 0.0100266455138 0)
(-0.44867644771 0.0106433361117 0)
(-0.448231287745 0.0112564573959 0)
(-0.447749729691 0.0118716260128 0)
(-0.447224653815 0.0124940079963 0)
(-0.446648503807 0.0131284063178 0)
(-0.44601322306 0.013779335818 0)
(-0.44531018717 0.0144510880711 0)
(-0.444530137236 0.0151477892196 0)
(-0.443663097172 0.0158734521962 0)
(-0.442698298104 0.016632027567 0)
(-0.441624031091 0.0174274499445 0)
(-0.440427555153 0.0182636887942 0)
(-0.439094691045 0.0191447778943 0)
(-0.437609787081 0.0200748477848 0)
(-0.435954286281 0.0210580300982 0)
(-0.434107534897 0.0220983173494 0)
(-0.432041163119 0.0231988151077 0)
(-0.429726088838 0.0243607263749 0)
(-0.427108888003 0.0255800497487 0)
(-0.424156057145 0.0268433327383 0)
(-0.420747467274 0.028117637889 0)
(-0.416920582596 0.0293371864712 0)
(-0.41235807959 0.030394090781 0)
(-0.407596980661 0.0311044441079 0)
(-0.401387004471 0.0314083839797 0)
(-0.431776554117 -0.0453116280564 0)
(-0.442822883863 -0.0417545577112 0)
(-0.450614591058 -0.0352903854839 0)
(-0.456014230857 -0.0299074545935 0)
(-0.459459874016 -0.0245279305086 0)
(-0.461560233254 -0.0199305412808 0)
(-0.462723175876 -0.015830241021 0)
(-0.463262562474 -0.0123178592078 0)
(-0.463386978964 -0.00927115731312 0)
(-0.463238473362 -0.00664970844397 0)
(-0.46290988531 -0.00437988972092 0)
(-0.462461769673 -0.00241160232297 0)
(-0.461932968154 -0.000695254087452 0)
(-0.461348026391 0.000808551518235 0)
(-0.460722071713 0.00213433105861 0)
(-0.460064012157 0.00331073571786 0)
(-0.459378649341 0.00436224010311 0)
(-0.458668050182 0.00530952549349 0)
(-0.457932450106 0.00617026007083 0)
(-0.457170839399 0.00695955021406 0)
(-0.456381346656 0.00769039845171 0)
(-0.455561486311 0.00837404532624 0)
(-0.454708317949 0.00902026885017 0)
(-0.453818546915 0.00963762688078 0)
(-0.452888586578 0.0102336629239 0)
(-0.451914595211 0.0108150778647 0)
(-0.450892496234 0.0113878757155 0)
(-0.449817987142 0.0119574872585 0)
(-0.44868654068 0.012528875917 0)
(-0.447493399112 0.0131066288579 0)
(-0.44623356289 0.0136950361014 0)
(-0.444901768898 0.0142981595596 0)
(-0.443492461157 0.0149198938649 0)
(-0.441999732611 0.0155640191207 0)
(-0.440417260048 0.0162342464213 0)
(-0.438738143864 0.0169342507903 0)
(-0.436954787882 0.0176676899378 0)
(-0.435058430003 0.0184381833484 0)
(-0.433039058974 0.0192492416153 0)
(-0.430883911068 0.0201040505127 0)
(-0.428578348578 0.0210050667123 0)
(-0.426100475931 0.0219531368684 0)
(-0.423428663944 0.0229459402462 0)
(-0.420519911793 0.0239753182208 0)
(-0.417353949835 0.0250222030824 0)
(-0.413837358547 0.0260519936643 0)
(-0.410028031768 0.0269995996128 0)
(-0.405683127411 0.0277821920669 0)
(-0.401294352631 0.0282523206889 0)
(-0.39583877939 0.0284167655058 0)
(-0.432100307729 -0.0396701107061 0)
(-0.44230632906 -0.037203565693 0)
(-0.449971009131 -0.0321140990378 0)
(-0.455635620969 -0.0276265852176 0)
(-0.459535911138 -0.0229639697845 0)
(-0.462131583922 -0.018840388541 0)
(-0.463749563184 -0.0150760254003 0)
(-0.464668119495 -0.0117871601057 0)
(-0.465082773804 -0.0088934679373 0)
(-0.465136432972 -0.00637576316976 0)
(-0.464927969398 -0.00417822321874 0)
(-0.464526420257 -0.00226170015927 0)
(-0.463979300618 -0.00058436425725 0)
(-0.463319396606 0.00088811729771 0)
(-0.462569250752 0.00218683227986 0)
(-0.461744339703 0.00333815200257 0)
(-0.460855225377 0.00436502046238 0)
(-0.459909030227 0.0052870906126 0)
(-0.458910445128 0.00612133538425 0)
(-0.45786242031 0.00688238637675 0)
(-0.456766642108 0.00758291741366 0)
(-0.455623863428 0.00823393651525 0)
(-0.454434134898 0.00884505274092 0)
(-0.453196967569 0.00942469707865 0)
(-0.451911448275 0.00998031451785 0)
(-0.450576321492 0.0105185270899 0)
(-0.44919004689 0.0110452742767 0)
(-0.447750838124 0.0115659333206 0)
(-0.446256686314 0.0120854227485 0)
(-0.444705368658 0.0126082911901 0)
(-0.443094442934 0.0131387932891 0)
(-0.441421222212 0.0136809535975 0)
(-0.439682732214 0.0142386187688 0)
(-0.437875629092 0.0148154966932 0)
(-0.43599610113 0.0154151801776 0)
(-0.434039667006 0.0160411482521 0)
(-0.432001013377 0.0166967354064 0)
(-0.429873494179 0.0173850469071 0)
(-0.427649042123 0.0181087863568 0)
(-0.425316760616 0.0188699414575 0)
(-0.422863938332 0.0196692018385 0)
(-0.420271315836 0.020505063303 0)
(-0.417520796371 0.0213720743048 0)
(-0.414576639723 0.0222589245656 0)
(-0.411426943782 0.0231435245102 0)
(-0.408000056886 0.0239922674413 0)
(-0.404362148309 0.024746155284 0)
(-0.400326379805 0.0253431290255 0)
(-0.396324965496 0.0256713613743 0)
(-0.391503089312 0.025763647651 0)
(-0.430461347029 -0.0347097587726 0)
(-0.439609689503 -0.0330121447928 0)
(-0.446840607323 -0.0290150199621 0)
(-0.45245785198 -0.025305775213 0)
(-0.45654748411 -0.0213118862013 0)
(-0.459431808354 -0.0176659314938 0)
(-0.461357706961 -0.0142643157922 0)
(-0.462558235031 -0.0112361865913 0)
(-0.463207176717 -0.00853554816312 0)
(-0.463439970123 -0.0061603523241 0)
(-0.463355253447 -0.0040709676168 0)
(-0.463025740602 -0.00223840792002 0)
(-0.462504135524 -0.000628548948453 0)
(-0.461828918052 0.000787758698914 0)
(-0.461028195983 0.0020379062395 0)
(-0.460122654207 0.00314571204859 0)
(-0.459127600174 0.00413232097746 0)
(-0.458054435753 0.00501612373196 0)
(-0.456911692524 0.00581319856647 0)
(-0.45570576961 0.00653754015333 0)
(-0.454441459612 0.0072013651594 0)
(-0.453122326885 0.00781535118693 0)
(-0.4517509814 0.00838886666651 0)
(-0.450329278313 0.0089301660304 0)
(-0.448858463836 0.00944656357414 0)
(-0.447339281295 0.00994458324459 0)
(-0.445772046726 0.0104300889156 0)
(-0.444156699749 0.0109083962968 0)
(-0.442492833467 0.0113843686843 0)
(-0.440779704149 0.0118624976872 0)
(-0.43901622197 0.0123469697895 0)
(-0.437200917882 0.0128417187457 0)
(-0.435331890312 0.0133504629217 0)
(-0.433406711625 0.0138767252727 0)
(-0.431422320635 0.014423831456 0)
(-0.429374820913 0.014994878929 0)
(-0.427259330948 0.0155926627244 0)
(-0.425069536464 0.0162195417846 0)
(-0.422797677062 0.0168771996613 0)
(-0.420433366818 0.0175662828579 0)
(-0.417964773437 0.0182857498333 0)
(-0.415374682015 0.0190320580414 0)
(-0.412648060336 0.019797484334 0)
(-0.409756066608 0.0205689151625 0)
(-0.406693634108 0.0213236283758 0)
(-0.403407212598 0.0220308444113 0)
(-0.399965467669 0.0226402029381 0)
(-0.396221632082 0.0231057137925 0)
(-0.392552067902 0.0233455872268 0)
(-0.388220682188 0.0233983911639 0)
(-0.427832633046 -0.0304031463164 0)
(-0.435918886494 -0.029233609659 0)
(-0.442589057822 -0.0260873639364 0)
(-0.447988921489 -0.0230372226022 0)
(-0.452104151076 -0.0196458081542 0)
(-0.455143333608 -0.0164587075968 0)
(-0.457281719167 -0.0134237532989 0)
(-0.458704900684 -0.0106731742264 0)
(-0.459560495715 -0.00818747189884 0)
(-0.459970911668 -0.00597773803689 0)
(-0.460029823118 -0.00401840677582 0)
(-0.459809647411 -0.00228958014719 0)
(-0.459365193192 -0.000764455586711 0)
(-0.45873822431 0.000581032353599 0)
(-0.457960545747 0.0017704902159 0)
(-0.457056573536 0.00282503568244 0)
(-0.45604516787 0.00376383648918 0)
(-0.454941015443 0.00460384629591 0)
(-0.45375562958 0.0053600840734 0)
(-0.452498087649 0.00604575929249 0)
(-0.451175571051 0.00667249908062 0)
(-0.449793764753 0.00725053302565 0)
(-0.448357153781 0.00778888347905 0)
(-0.446869244504 0.00829553217977 0)
(-0.445332729789 0.00877757279196 0)
(-0.443749611466 0.00924134436053 0)
(-0.44212128932 0.00969254843481 0)
(-0.44044862264 0.0101363497317 0)
(-0.438731968497 0.0105774615293 0)
(-0.436971198244 0.0110202161174 0)
(-0.435165694422 0.0114686204232 0)
(-0.433314324504 0.0119263961881 0)
(-0.431415396683 0.0123970030399 0)
(-0.429466580655 0.0128836417086 0)
(-0.427464821475 0.0133892318002 0)
(-0.425406174989 0.013916357542 0)
(-0.423285708194 0.0144671653524 0)
(-0.421097148172 0.0150432029366 0)
(-0.418832969095 0.0156451501895 0)
(-0.416483469204 0.0162724530431 0)
(-0.414038062635 0.0169226848356 0)
(-0.411482074071 0.0175908626101 0)
(-0.408803892794 0.0182679900047 0)
(-0.405981370354 0.0189403981518 0)
(-0.403015198489 0.0195864206096 0)
(-0.399866076449 0.0201790064092 0)
(-0.396602058754 0.0206768111845 0)
(-0.393103710044 0.0210457932155 0)
(-0.389700717938 0.0212273368067 0)
(-0.385739692787 0.0212573451877 0)
(-0.424911438171 -0.0266687189427 0)
(-0.432041487522 -0.0258559698991 0)
(-0.438135640398 -0.0233640213254 0)
(-0.443244582024 -0.0208610753035 0)
(-0.447293536855 -0.0179981321741 0)
(-0.450404177031 -0.0152365596288 0)
(-0.45269215204 -0.0125561782924 0)
(-0.454298320083 -0.0100851515327 0)
(-0.455342970466 -0.00782310507929 0)
(-0.45593234336 -0.00579052438792 0)
(-0.456151884162 -0.00397349593427 0)
(-0.45607065856 -0.00235994156862 0)
(-0.4557430335 -0.000929748179002 0)
(-0.455211962911 0.000336338604876 0)
(-0.454511262024 0.00145819784443 0)
(-0.45366770489 0.00245420053409 0)
(-0.452702573575 0.00334143381881 0)
(-0.45163288712 0.0041352893699 0)
(-0.450472319096 0.00484959437157 0)
(-0.44923189812 0.00549664268597 0)
(-0.447920535512 0.00608734672449 0)
(-0.446545427035 0.00663136959152 0)
(-0.445112358907 0.00713727550008 0)
(-0.443625942233 0.00761266707271 0)
(-0.442089792619 0.00806431544165 0)
(-0.440506667284 0.00849827629577 0)
(-0.438878568381 0.00891999292817 0)
(-0.437206818529 0.00933438503638 0)
(-0.435492112973 0.0097459235572 0)
(-0.433734550425 0.0101586911816 0)
(-0.431933645469 0.0105764280825 0)
(-0.430088320149 0.0110025617805 0)
(-0.428196880928 0.0114402190169 0)
(-0.42625696675 0.0118922167094 0)
(-0.424265496626 0.0123610260096 0)
(-0.422218553828 0.0128487037416 0)
(-0.420111343068 0.0133567751801 0)
(-0.417937938021 0.0138860628559 0)
(-0.415691453997 0.0144364142604 0)
(-0.413363349522 0.015006357625 0)
(-0.410944760631 0.0155925230647 0)
(-0.408423885263 0.016189098214 0)
(-0.405792588382 0.0167866493697 0)
(-0.403034681539 0.0173718528161 0)
(-0.400155388903 0.0179250354745 0)
(-0.397125953642 0.0184230719368 0)
(-0.394012168761 0.0188328188122 0)
(-0.390712652463 0.0191289600451 0)
(-0.387520073536 0.0192698329206 0)
(-0.383839179727 0.0192860725093 0)
(-0.422119477754 -0.0234078807047 0)
(-0.428440332736 -0.0228342110496 0)
(-0.434001962171 -0.0208429784399 0)
(-0.438804140541 -0.0187884586139 0)
(-0.442740663205 -0.0163804617335 0)
(-0.445870895077 -0.0140038000681 0)
(-0.448263686869 -0.0116562349989 0)
(-0.450020703525 -0.0094571123251 0)
(-0.451236081798 -0.00741877026348 0)
(-0.451998755002 -0.00556774205434 0)
(-0.452384027762 -0.00389927768181 0)
(-0.45245551103 -0.00240774034825 0)
(-0.452265218726 -0.00107889264283 0)
(-0.451855645091 0.000102124646627 0)
(-0.451261250028 0.00115164781859 0)
(-0.45051004318 0.00208535086008 0)
(-0.449624808693 0.00291821196373 0)
(-0.448624137649 0.00366399199747 0)
(-0.447523228718 0.00433523686193 0)
(-0.446334524127 0.00494322744329 0)
(-0.445068204523 0.00549806265105 0)
(-0.443732578044 0.00600874275487 0)
(-0.442334385563 0.0064832816993 0)
(-0.440879041538 0.00692881600008 0)
(-0.439370824097 0.00735171276846 0)
(-0.437813024946 0.00775766855122 0)
(-0.436208066776 0.00815179850449 0)
(-0.434557593738 0.00853871368902 0)
(-0.432862539319 0.00892258595761 0)
(-0.431123173895 0.00930719949359 0)
(-0.429339135227 0.00969598804816 0)
(-0.427509440407 0.0100920564625 0)
(-0.425632485968 0.0104981840611 0)
(-0.423706024337 0.010916806993 0)
(-0.421727144505 0.0113499736393 0)
(-0.419692202019 0.0117992683724 0)
(-0.417596825681 0.0122656890757 0)
(-0.415435749839 0.0127494771276 0)
(-0.413203049672 0.013249859004 0)
(-0.410891621955 0.0137647386047 0)
(-0.408494510217 0.0142902013204 0)
(-0.406002736401 0.014820100979 0)
(-0.403411327686 0.015345158417 0)
(-0.400709016856 0.015852949481 0)
(-0.397904358852 0.016326179689 0)
(-0.394976043582 0.0167454431227 0)
(-0.391986880672 0.0170845303997 0)
(-0.388847242319 0.0173244788111 0)
(-0.385821104561 0.0174356630928 0)
(-0.382355029504 0.0174433209105 0)
(-0.419660061321 -0.0205258107589 0)
(-0.425319951413 -0.0201122565753 0)
(-0.430416181794 -0.0185057755532 0)
(-0.434925871436 -0.0168166991548 0)
(-0.438730567742 -0.0147961537025 0)
(-0.441847412249 -0.012762187602 0)
(-0.444310248183 -0.0107211495084 0)
(-0.446188223041 -0.00878081606905 0)
(-0.447551960402 -0.00696104759542 0)
(-0.448473443812 -0.00529159038746 0)
(-0.449017078352 -0.00377447709154 0)
(-0.44923980203 -0.00240911102062 0)
(-0.449190002228 -0.00118620589371 0)
(-0.448908537845 -9.47731862911e-05 0)
(-0.448429506983 0.000878271841225 0)
(-0.447781319333 0.00174604279495 0)
(-0.44698758219 0.00252145311925 0)
(-0.446067911443 0.00321662217653 0)
(-0.44503859222 0.00384277282276 0)
(-0.443913129765 0.0044101152572 0)
(-0.442702695282 0.00492787025449 0)
(-0.441416489709 0.00540430934625 0)
(-0.440062038835 0.00584683233364 0)
(-0.438645433682 0.00626204979839 0)
(-0.437171526124 0.00665587024596 0)
(-0.435644088036 0.0070335825179 0)
(-0.434065940239 0.00739993166448 0)
(-0.432439056005 0.00775918527051 0)
(-0.430764643103 0.00811518900486 0)
(-0.429043206669 0.00847140996332 0)
(-0.427274596318 0.00883096646921 0)
(-0.425458036728 0.00919664268173 0)
(-0.423592148721 0.00957088549333 0)
(-0.421674951171 0.00995578094087 0)
(-0.419703870723 0.0103530047331 0)
(-0.417675711514 0.0107637432634 0)
(-0.41558670284 0.0111885727773 0)
(-0.413432401155 0.0116272984874 0)
(-0.411207969174 0.0120787206803 0)
(-0.408907793726 0.012540370799 0)
(-0.406526771369 0.0130081055841 0)
(-0.404058464994 0.0134758090117 0)
(-0.401500585431 0.0139347369532 0)
(-0.398845735748 0.0143736609979 0)
(-0.396104794019 0.0147777138955 0)
(-0.393261545956 0.0151308207822 0)
(-0.390375658475 0.0154124033478 0)
(-0.387365161149 0.0156081522741 0)
(-0.384471940524 0.0156968723151 0)
(-0.381173507459 0.0156991111697 0)
(-0.417592902402 -0.0179411400728 0)
(-0.422722701819 -0.0176357105413 0)
(-0.427424502611 -0.0163286799799 0)
(-0.431669237149 -0.0149379201144 0)
(-0.435337709762 -0.0132462374968 0)
(-0.438419971562 -0.0115149187568 0)
(-0.440924766957 -0.0097532055017 0)
(-0.442895397531 -0.00805607377083 0)
(-0.444382333905 -0.00644697289099 0)
(-0.445441956229 -0.00495658681131 0)
(-0.44612789419 -0.00359159287776 0)
(-0.446489929451 -0.00235509183411 0)
(-0.446572108852 -0.00124178511127 0)
(-0.446412906262 -0.00024396407078 0)
(-0.446045373605 0.000648572465381 0)
(-0.445497735155 0.00144658353321 0)
(-0.444793941676 0.00216102285551 0)
(-0.443954250851 0.00280240816952 0)
(-0.442995734958 0.00338063987578 0)
(-0.441932732779 0.00390483516871 0)
(-0.440777234197 0.00438330221768 0)
(-0.439539208383 0.00482354407786 0)
(-0.438226880515 0.00523230574678 0)
(-0.436846965108 0.00561563303661 0)
(-0.435404861965 0.00597894054569 0)
(-0.433904820396 0.00632707873703 0)
(-0.432350076285 0.00666439724657 0)
(-0.430742965761 0.0069948008156 0)
(-0.429085018897 0.00732179605691 0)
(-0.427377035611 0.00764852725302 0)
(-0.425619147205 0.00797779958253 0)
(-0.4238108634 0.0083120880013 0)
(-0.421951112017 0.00865352931075 0)
(-0.420038263557 0.00900389491283 0)
(-0.418070166479 0.00936453958635 0)
(-0.416044151381 0.00973632373382 0)
(-0.413957112685 0.0101194993501 0)
(-0.411805467046 0.0105135637036 0)
(-0.40958546206 0.0109170557321 0)
(-0.407292894931 0.0113273378168 0)
(-0.404924342204 0.0117402766677 0)
(-0.402475542687 0.0121500403837 0)