/*--------------------------------*- C++ -*----------------------------------*\
| =========                 |                                                 |
| \\      /  F ield         | OpenFOAM: The Open Source CFD Toolbox           |
|  \\    /   O peration     | Version:  2.4.0                                 |
|   \\  /    A nd           | Web:      www.OpenFOAM.org                      |
|    \\/     M anipulation  |                                                 |
\*---------------------------------------------------------------------------*/
FoamFile
{
    version     2.0;
    format      ascii;
    class       volVectorField;
    location    "800";
    object      U;
}
// * * * * * * * * * * * * * * * * * * * * * * * * * * * * * * * * * * * * * //

dimensions      [0 1 -1 0 0 0 0];

internalField   nonuniform List<vector> 
2500
(
(2.38438838285e-05 4.56638099776e-07 0)
(2.33674260637e-05 6.60303362179e-08 0)
(2.33998565617e-05 -5.47730293806e-08 0)
(2.35486490511e-05 -6.79099143914e-08 0)
(2.37185701883e-05 -5.73394056094e-08 0)
(2.38704532312e-05 -4.51166920751e-08 0)
(2.40006972095e-05 -3.5720319079e-08 0)
(2.41114231859e-05 -2.90507538106e-08 0)
(2.42061128444e-05 -2.42161458986e-08 0)
(2.42875510408e-05 -2.05272801118e-08 0)
(2.43578735362e-05 -1.75669963589e-08 0)
(2.4418708925e-05 -1.51030411862e-08 0)
(2.44713485532e-05 -1.3004137713e-08 0)
(2.45168474955e-05 -1.11907517799e-08 0)
(2.45560868854e-05 -9.60958956584e-09 0)
(2.45898111775e-05 -8.22138552671e-09 0)
(2.46186524244e-05 -6.99505624363e-09 0)
(2.46431471332e-05 -5.90478153577e-09 0)
(2.46637486972e-05 -4.92840297199e-09 0)
(2.46808368586e-05 -4.04643716465e-09 0)
(2.4694725007e-05 -3.24139741181e-09 0)
(2.47056657808e-05 -2.49728770159e-09 0)
(2.47138552765e-05 -1.79919861208e-09 0)
(2.47194360674e-05 -1.13296952109e-09 0)
(2.47224991623e-05 -4.84890581694e-10 0)
(2.4723084989e-05 1.5857143001e-10 0)
(2.47211834389e-05 8.11038122272e-10 0)
(2.4716732971e-05 1.48648779516e-09 0)
(2.47096187371e-05 2.19953965938e-09 0)
(2.46996696446e-05 2.96576711902e-09 0)
(2.46866542304e-05 3.80205721224e-09 0)
(2.46702751523e-05 4.72703816094e-09 0)
(2.46501620335e-05 5.76160276064e-09 0)
(2.46258622864e-05 6.92957623833e-09 0)
(2.45968293819e-05 8.25860264387e-09 0)
(2.45624077817e-05 9.78139837781e-09 0)
(2.45218132971e-05 1.15376914853e-08 0)
(2.44741067589e-05 1.35775735285e-08 0)
(2.44181569662e-05 1.59679758575e-08 0)
(2.43525853442e-05 1.88060991178e-08 0)
(2.42756762048e-05 2.22480361404e-08 0)
(2.41852286031e-05 2.65672310205e-08 0)
(2.40782978197e-05 3.22648930708e-08 0)
(2.39508591279e-05 4.02304641603e-08 0)
(2.37973684884e-05 5.18503579002e-08 0)
(2.36118850268e-05 6.84154239492e-08 0)
(2.33911006815e-05 8.79976690235e-08 0)
(2.31608072926e-05 9.31720963374e-08 0)
(2.30000376053e-05 5.01292251457e-09 0)
(2.32747440492e-05 -3.41302615089e-07 0)
(8.56085977144e-05 1.26961245956e-06 0)
(8.51077658679e-05 2.52503771857e-07 0)
(8.51474841895e-05 -2.19531815222e-07 0)
(8.5420077123e-05 -3.45002047969e-07 0)
(8.57949207446e-05 -3.49482764808e-07 0)
(8.61846615098e-05 -3.18187303671e-07 0)
(8.65553779718e-05 -2.80433471317e-07 0)
(8.68933403974e-05 -2.44865532671e-07 0)
(8.71954918116e-05 -2.13344767219e-07 0)
(8.74628569689e-05 -1.85793599135e-07 0)
(8.76980714279e-05 -1.6171743741e-07 0)
(8.7904189205e-05 -1.40616634003e-07 0)
(8.80842254697e-05 -1.2206397563e-07 0)
(8.82409731716e-05 -1.05701712157e-07 0)
(8.83769458991e-05 -9.12262073401e-08 0)
(8.84943696071e-05 -7.83753068757e-08 0)
(8.85951941326e-05 -6.69193605001e-08 0)
(8.86811111525e-05 -5.66547198403e-08 0)
(8.87535731407e-05 -4.73987174119e-08 0)
(8.88138109577e-05 -3.89855723269e-08 0)
(8.88628491228e-05 -3.12629283971e-08 0)
(8.89015184433e-05 -2.40888547608e-08 0)
(8.89304659315e-05 -1.73291872615e-08 0)
(8.89501620473e-05 -1.08551191036e-08 0)
(8.89609053146e-05 -4.5409515486e-09 0)
(8.89628243447e-05 1.73806716689e-09 0)
(8.89558772495e-05 8.10789323085e-09 0)
(8.89398483697e-05 1.4697899767e-08 0)
(8.89143421778e-05 2.16432313161e-08 0)
(8.8878774131e-05 2.9087391817e-08 0)
(8.88323581636e-05 3.71851695646e-08 0)
(8.87740903983e-05 4.61060318045e-08 0)
(8.87027285368e-05 5.60381563897e-08 0)
(8.86167662669e-05 6.71933220301e-08 0)
(8.85144018905e-05 7.98129613485e-08 0)
(8.83935003079e-05 9.41758338978e-08 0)
(8.8251547573e-05 1.10608061424e-07 0)
(8.80855978052e-05 1.29496834826e-07 0)
(8.78922139369e-05 1.51310182378e-07 0)
(8.76674092885e-05 1.76626801979e-07 0)
(8.74066091717e-05 2.06181097676e-07 0)
(8.71046931382e-05 2.40921914134e-07 0)
(8.67562453661e-05 2.82045649805e-07 0)
(8.63564364113e-05 3.30808439497e-07 0)
(8.59031169149e-05 3.87432855261e-07 0)
(8.54029100307e-05 4.4699026312e-07 0)
(8.48811488904e-05 4.86279061119e-07 0)
(8.44154522157e-05 4.27917467572e-07 0)
(8.41365867946e-05 4.87699897395e-08 0)
(8.43513920229e-05 -8.72986424038e-07 0)
(0.000145978593738 1.90936683459e-06 0)
(0.000145549839757 4.56311095507e-07 0)
(0.000145528667481 -3.81317112241e-07 0)
(0.000145766876626 -7.04903589079e-07 0)
(0.000146166053577 -7.89094535352e-07 0)
(0.000146630597916 -7.70480413852e-07 0)
(0.000147106895406 -7.12655428833e-07 0)
(0.000147564846461 -6.42937498174e-07 0)
(0.000147990292511 -5.72733558253e-07 0)
(0.000148377577925 -5.06510943359e-07 0)
(0.000148725648957 -4.45799189854e-07 0)
(0.000149035734707 -3.90884676139e-07 0)
(0.000149310132308 -3.41535818092e-07 0)
(0.000149551552899 -2.97314182058e-07 0)
(0.000149762780335 -2.57711030922e-07 0)
(0.000149946492779 -2.22207812085e-07 0)
(0.000150105171981 -1.90302385582e-07 0)
(0.000150241059264 -1.61519140389e-07 0)
(0.000150356136602 -1.35411300311e-07 0)
(0.00015045212088 -1.11559410428e-07 0)
(0.00015053046471 -8.95679818522e-08 0)
(0.000150592360028 -6.90612916309e-08 0)
(0.000150638742276 -4.96788268553e-08 0)
(0.000150670293846 -3.10705907727e-08 0)
(0.000150687445996 -1.28923383488e-08 0)
(0.000150690378706 5.19926744367e-09 0)
(0.000150679018145 2.35516401257e-08 0)
(0.000150653031473 4.25214824163e-08 0)
(0.00015061181878 6.24803371222e-08 0)
(0.000150554502009 8.38206096861e-08 0)
(0.000150479910741 1.06962202624e-07 0)
(0.000150386564848 1.32359918451e-07 0)
(0.00015027265417 1.60511780795e-07 0)
(0.000150136015732 1.91968384277e-07 0)
(0.000149974109689 2.27343272746e-07 0)
(0.000149783996424 2.6732408749e-07 0)
(0.000149562319608 3.12683636469e-07 0)
(0.000149305304702 3.64288708117e-07 0)
(0.000149008791274 4.23101303284e-07 0)
(0.000148668335913 4.90159232494e-07 0)
(0.000148279456766 5.665031201e-07 0)
(0.000147838166613 6.52966289063e-07 0)
(0.00014734205407 7.49611086174e-07 0)
(0.000146792486122 8.5428135604e-07 0)
(0.000146198574738 9.58926169856e-07 0)
(0.000145585012062 1.040838485e-06 0)
(0.000145001530651 1.04167661594e-06 0)
(0.000144543472744 8.26910207859e-07 0)
(0.000144322206221 1.11113124009e-07 0)
(0.000144494373375 -1.24620607834e-06 0)
(0.000204612094168 2.40467109588e-06 0)
(0.000204260489192 6.72221968886e-07 0)
(0.000204184016805 -4.60709884623e-07 0)
(0.000204335411782 -1.00097406188e-06 0)
(0.000204664357557 -1.20945056218e-06 0)
(0.000205094906551 -1.24471999773e-06 0)
(0.000205571726263 -1.195915426e-06 0)
(0.000206056519036 -1.10939103477e-06 0)
(0.000206526161884 -1.00889283918e-06 0)
(0.000206967619554 -9.06283504052e-07 0)
(0.000207374412766 -8.07328995927e-07 0)
(0.000207744040348 -7.14646456313e-07 0)
(0.000208076350259 -6.29222429748e-07 0)
(0.000208372513608 -5.51194523452e-07 0)
(0.000208634396564 -4.80261070276e-07 0)
(0.000208864175664 -4.15898765213e-07 0)
(0.000209064102982 -3.57479601891e-07 0)
(0.000209236362656 -3.0433363491e-07 0)
(0.000209382983425 -2.55781948953e-07 0)
(0.000209505785533 -2.11152905477e-07 0)
(0.000209606348687 -1.69788853907e-07 0)
(0.00020968599274 -1.31047314339e-07 0)
(0.000209745765842 -9.4298913468e-08 0)
(0.000209786436708 -5.89233588728e-08 0)
(0.000209808488806 -2.43041806656e-08 0)
(0.000209812115075 1.0177359276e-08 0)
(0.000209797212278 4.5148982614e-08 0)
(0.000209763374481 8.12546289069e-08 0)
(0.000209709885437 1.19162162202e-07 0)
(0.000209635709958 1.5957151093e-07 0)
(0.000209539484722 2.03223160694e-07 0)
(0.000209419509386 2.50906816001e-07 0)
(0.000209273739656 3.03469827686e-07 0)
(0.000209099785014 3.61824568319e-07 0)
(0.000208894915655 4.26953154522e-07 0)
(0.000208656086168 4.99906474615e-07 0)
(0.000208379988483 5.81791725875e-07 0)
(0.000208063155142 6.73737407392e-07 0)
(0.00020770214833 7.76814263486e-07 0)
(0.000207293895052 8.91869680432e-07 0)
(0.000206836268537 1.01918929746e-06 0)
(0.000206329085975 1.15781029688e-06 0)
(0.000205775768036 1.304119284e-06 0)
(0.000205186074516 1.44900834249e-06 0)
(0.000204580107763 1.57206528947e-06 0)
(0.000203994284872 1.63032417457e-06 0)
(0.000203485240327 1.53631273217e-06 0)
(0.000203134635838 1.12639052965e-06 0)
(0.000203007945859 1.20360263205e-07 0)
(0.000203156442407 -1.52726170436e-06 0)
(0.000261151515308 2.77429024586e-06 0)
(0.000260869466333 8.81451375875e-07 0)
(0.000260757714084 -4.66831707679e-07 0)
(0.000260824465814 -1.20521790693e-06 0)
(0.000261056525156 -1.55514881996e-06 0)
(0.000261404675302 -1.67379609563e-06 0)
(0.000261822939921 -1.66267737201e-06 0)
(0.000262273466939 -1.58220003029e-06 0)
(0.000262729334537 -1.46760354803e-06 0)
(0.000263172611457 -1.33899460817e-06 0)
(0.00026359220157 -1.20766575852e-06 0)
(0.000263981779998 -1.07978358607e-06 0)
(0.000264338233043 -9.58539405726e-07 0)
(0.00026466053082 -8.45390152683e-07 0)
(0.000264948949913 -7.40779406952e-07 0)
(0.000265204545119 -6.44559002649e-07 0)
(0.000265428794078 -5.56237714068e-07 0)
(0.000265623358778 -4.75128717366e-07 0)
(0.000265789925541 -4.00437018184e-07 0)
(0.000265930097478 -3.31310736966e-07 0)
(0.000266045321997 -2.66870323505e-07 0)
(0.000266136841672 -2.06224096632e-07 0)
(0.000266205660624 -1.48475192461e-07 0)
(0.00026625252115 -9.27230297523e-08 0)
(0.000266277887058 -3.80612323605e-08 0)
(0.000266281931384 1.6426770635e-08 0)
(0.000266264527042 7.16736576223e-08 0)
(0.000266225239648 1.28635059476e-07 0)
(0.000266163322326 1.88296859588e-07 0)
(0.000266077712945 2.51682437484e-07 0)
(0.000265967034856 3.19859199193e-07 0)
(0.000265829603154 3.93943402295e-07 0)
(0.00026566343967 4.75101677911e-07 0)
(0.000265466301731 5.64546610375e-07 0)
(0.000265235732438 6.63521910653e-07 0)
(0.000264969144307 7.73269590048e-07 0)
(0.000264663954431 8.94966040932e-07 0)
(0.000264317798916 1.02960422849e-06 0)
(0.000263928868705 1.17778174457e-06 0)
(0.000263496430043 1.33932303602e-06 0)
(0.000263021619828 1.5126064415e-06 0)
(0.000262508641256 1.69336465376e-06 0)
(0.000261966488479 1.8725389881e-06 0)
(0.000261411331551 2.03248272453e-06 0)
(0.000260869274498 2.1402581568e-06 0)
(0.000260379139209 2.13655994774e-06 0)
(0.000259991071074 1.91757968651e-06 0)
(0.000259761543671 1.31599651871e-06 0)
(0.000259715935914 8.83258247826e-08 0)
(0.000259845072503 -1.73192537146e-06 0)
(0.000315377353638 3.04347604201e-06 0)
(0.000315158458918 1.07384083326e-06 0)
(0.000315031379107 -4.17742791761e-07 0)
(0.000315032376545 -1.317732919e-06 0)
(0.000315171884045 -1.80372948186e-06 0)
(0.000315424754474 -2.01862324416e-06 0)
(0.000315758416671 -2.06521298898e-06 0)
(0.000316140936752 -2.01131726441e-06 0)
(0.00031654623069 -1.90051523926e-06 0)
(0.000316954667656 -1.76013071208e-06 0)
(0.000317352443097 -1.6070268978e-06 0)
(0.000317730383968 -1.45140686e-06 0)
(0.000318082790175 -1.29926868254e-06 0)
(0.000318406453274 -1.15395773155e-06 0)
(0.000318699893937 -1.0171452093e-06 0)
(0.000318962791507 -8.89444313523e-07 0)
(0.00031919556741 -7.70799470745e-07 0)
(0.000319399084659 -6.60732984419e-07 0)
(0.000319574432576 -5.58501637361e-07 0)
(0.000319722773064 -4.63195944276e-07 0)
(0.000319845230928 -3.73802531403e-07 0)
(0.00031994281561 -2.89242580951e-07 0)
(0.000320016365314 -2.08394589407e-07 0)
(0.000320066507132 -1.3010677389e-07 0)
(0.000320093628741 -5.3202641144e-08 0)
(0.000320097858688 2.35179003337e-08 0)
(0.000320079053404 1.01280185192e-07 0)
(0.000320036790007 1.81337861625e-07 0)
(0.0003199703648 2.64976200161e-07 0)
(0.000319878798199 3.53514366373e-07 0)
(0.000319760847824 4.48305083071e-07 0)
(0.000319615032622 5.50729475795e-07 0)
(0.00031943967252 6.62183830165e-07 0)
(0.000319232950205 7.84053215283e-07 0)
(0.000318993004662 9.17664019647e-07 0)
(0.000318718070228 1.06420270859e-06 0)
(0.000318406680735 1.22458031821e-06 0)
(0.000318057965947 1.39920937907e-06 0)
(0.000317672077167 1.58763876394e-06 0)
(0.000317250789462 1.78795721515e-06 0)
(0.000316798334358 1.99581928763e-06 0)
(0.000316322512333 2.20285946664e-06 0)
(0.000315836077732 2.39412027165e-06 0)
(0.000315358284319 2.54396215469e-06 0)
(0.000314916034869 2.60965830154e-06 0)
(0.000314543831449 2.52219458181e-06 0)
(0.000314279234805 2.17352478118e-06 0)
(0.000314153836218 1.40817764048e-06 0)
(0.000314165404438 2.744130311e-08 0)
(0.000314273844014 -1.87926882601e-06 0)
(0.000367152019499 3.2291330064e-06 0)
(0.000366990956801 1.24067237785e-06 0)
(0.000366863703163 -3.35478491272e-07 0)
(0.000366819549325 -1.3564137399e-06 0)
(0.000366882123334 -1.96030984488e-06 0)
(0.000367044722365 -2.27071301263e-06 0)
(0.000367287956576 -2.38456652666e-06 0)
(0.000367588111434 -2.37133810065e-06 0)
(0.00036792292538 -2.27923961671e-06 0)
(0.000368273733784 -2.14081646862e-06 0)
(0.000368626040989 -1.97764257613e-06 0)
(0.000368969193024 -1.80375538809e-06 0)
(0.000369295745372 -1.62809167284e-06 0)
(0.000369600773456 -1.45615789026e-06 0)
(0.000369881250035 -1.291161383e-06 0)
(0.000370135526822 -1.13476989154e-06 0)
(0.000370362922699 -9.87620160583e-07 0)
(0.00037056340536 -8.49658237449e-07 0)
(0.000370737349336 -7.20367185315e-07 0)
(0.000370885354069 -5.98919338147e-07 0)
(0.000371008108149 -4.84277789675e-07 0)
(0.000371106288614 -3.75263570663e-07 0)
(0.00037118048678 -2.70599539299e-07 0)
(0.000371231154202 -1.68938465518e-07 0)
(0.000371258564138 -6.88804653908e-08 0)
(0.000371262785308 3.10165289816e-08 0)
(0.000371243665933 1.32230504767e-07 0)
(0.000371200827076 2.36271035094e-07 0)
(0.000371133665268 3.44674782165e-07 0)
(0.000371041365421 4.5899859428e-07 0)
(0.000370922926095 5.80807484642e-07 0)
(0.000370777200521 7.11653866796e-07 0)
(0.000370602958392 8.53042925138e-07 0)
(0.000370398975477 1.00637661129e-06 0)
(0.000370164160753 1.17286503339e-06 0)
(0.000369897733958 1.35338823021e-06 0)
(0.000369599470307 1.5482824105e-06 0)
(0.00036927003303 1.75701103875e-06 0)
(0.000368911417222 1.97766029479e-06 0)
(0.000368527527316 2.20616745591e-06 0)
(0.000368124898349 2.43514556594e-06 0)
(0.000367713538412 2.65210874148e-06 0)
(0.000367307784309 2.83682521238e-06 0)
(0.000366926921648 2.95748557824e-06 0)
(0.000366594966292 2.965322972e-06 0)
(0.0003663387626 2.78788146099e-06 0)
(0.000366182330386 2.32124159335e-06 0)
(0.000366137245216 1.42876688676e-06 0)
(0.000366184701872 -4.63571995674e-08 0)
(0.000366270615768 -1.97881331548e-06 0)
(0.000416387090544 3.34431816689e-06 0)
(0.000416278815156 1.37736144189e-06 0)
(0.000416161461487 -2.37108949702e-07 0)
(0.000416089430161 -1.34039959444e-06 0)
(0.000416092593502 -2.03830545488e-06 0)
(0.000416177165769 -2.4345071724e-06 0)
(0.000416334868356 -2.61640329824e-06 0)
(0.000416550410613 -2.65102062236e-06 0)
(0.000416806757335 -2.58791950182e-06 0)
(0.000417087948676 -2.46264242567e-06 0)
(0.000417380411944 -2.30015297365e-06 0)
(0.000417673313362 -2.11764763137e-06 0)
(0.000417958422396 -1.92673851273e-06 0)
(0.000418229755848 -1.73506917247e-06 0)
(0.000418483159717 -1.54748404533e-06 0)
(0.000418715906203 -1.36686131211e-06 0)
(0.000418926339731 -1.19470094103e-06 0)
(0.000419113581595 -1.03153767327e-06 0)
(0.000419277291275 -8.77230213264e-07 0)
(0.000419417477643 -7.31163302467e-07 0)
(0.000419534351941 -5.92388617956e-07 0)
(0.000419628214801 -4.59722734181e-07 0)
(0.000419699370649 -3.3181499529e-07 0)
(0.00041974806409 -2.07194412517e-07 0)
(0.000419774434163 -8.43021688622e-08 0)
(0.000419778483488 3.84853673482e-08 0)
(0.000419760060437 1.628392787e-07 0)
(0.000419718853426 2.90463118759e-07 0)
(0.000419654397426 4.23077234316e-07 0)
(0.00041956609376 5.62399104615e-07 0)
(0.000419453245374 7.10115808419e-07 0)
(0.000419315110936 8.67843601841e-07 0)
(0.000419150982559 1.03706780808e-06 0)
(0.0004189602935 1.21905347532e-06 0)
(0.000418742763972 1.41471318586e-06 0)
(0.000418498594912 1.62441240234e-06 0)
(0.000418228720805 1.84768404585e-06 0)
(0.000417935132495 2.08281160866e-06 0)
(0.000417621277387 2.3262228663e-06 0)
(0.000417292534137 2.57161349239e-06 0)
(0.000416956735391 2.80869145127e-06 0)
(0.000416624666744 3.02140520792e-06 0)
(0.000416310384465 3.18549611361e-06 0)
(0.000416031064283 3.26525605643e-06 0)
(0.000415805871474 3.20943839279e-06 0)
(0.000415653150838 2.94686129879e-06 0)
(0.00041558496427 2.38242317376e-06 0)
(0.000415598420979 1.39994397261e-06 0)
(0.000415665995962 -1.22194737167e-07 0)
(0.000415728707399 -2.03790459426e-06 0)
(0.000463022914479 3.39908509662e-06 0)
(0.00046296258047 1.48196987376e-06 0)
(0.000462861196131 -1.34996486779e-07 0)
(0.000462774326877 -1.28668269582e-06 0)
(0.0004627338284 -2.05346477039e-06 0)
(0.000462754387146 -2.52083743662e-06 0)
(0.000462836306601 -2.76534161284e-06 0)
(0.000462971832735 -2.84909561501e-06 0)
(0.000463149442563 -2.8205362492e-06 0)
(0.000463356760595 -2.71621003862e-06 0)
(0.00046358220669 -2.56305840212e-06 0)
(0.000463815787917 -2.38053428728e-06 0)
(0.000464049350518 -2.1824070716e-06 0)
(0.000464276527543 -1.97820365664e-06 0)
(0.000464492536507 -1.77432063958e-06 0)
(0.00046469392027 -1.57486208889e-06 0)
(0.000464878283173 -1.3822612835e-06 0)
(0.000465044048468 -1.19773750764e-06 0)
(0.000465190247817 -1.02162949893e-06 0)
(0.000465316345275 -8.53637794485e-07 0)
(0.000465422093972 -6.93000358466e-07 0)
(0.000465507421943 -5.38619642596e-07 0)
(0.000465572343159 -3.8915453854e-07 0)
(0.000465616890048 -2.43087228737e-07 0)
(0.00046564106444 -9.87724908858e-08 0)
(0.000465644804616 4.55246768505e-08 0)
(0.000465627966929 1.91598332913e-07 0)
(0.000465590321333 3.41273590494e-07 0)
(0.000465531560984 4.96377321503e-07 0)
(0.000465451326935 6.58703317464e-07 0)
(0.000465349249897 8.29966959753e-07 0)
(0.000465225011973 1.01174324019e-06 0)
(0.000465078432246 1.20538008269e-06 0)
(0.000464909581048 1.41187615034e-06 0)
(0.000464718928378 1.63170838743e-06 0)
(0.000464507532079 1.86458910081e-06 0)
(0.000464277270191 2.10912500406e-06 0)
(0.000464031118332 2.3623410448e-06 0)
(0.000463773465071 2.61901993631e-06 0)
(0.00046351044287 2.87079514516e-06 0)
(0.00046325022492 3.10492295318e-06 0)
(0.000463003192822 3.3026566943e-06 0)
(0.000462781811171 3.43716055756e-06 0)
(0.000462599945129 3.47098097682e-06 0)
(0.000462471259459 3.35320295816e-06 0)
(0.00046240617437 3.01693220423e-06 0)
(0.000462407231336 2.37787021235e-06 0)
(0.000462461814926 1.33911958798e-06 0)
(0.000462538715524 -1.92909703811e-07 0)
(0.000462578614222 -2.06207231971e-06 0)
(0.000507017628892 3.4015274889e-06 0)
(0.000507000642457 1.55448215233e-06 0)
(0.000506918474646 -3.73279871944e-08 0)
(0.000506826043071 -1.20863196232e-06 0)
(0.000506754753094 -2.02031785486e-06 0)
(0.000506724518235 -2.54219351364e-06 0)
(0.000506741889462 -2.840043431e-06 0)
(0.000506805348131 -2.96986274007e-06 0)
(0.000506908515937 -2.97732526427e-06 0)
(0.000507042847356 -2.898415013e-06 0)
(0.000507199327122 -2.76077530802e-06 0)
(0.000507369488761 -2.5851773483e-06 0)
(0.000507545924464 -2.38691237993e-06 0)
(0.000507722470213 -2.17699448802e-06 0)
(0.000507894195361 -1.96315069048e-06 0)
(0.000508057287682 -1.75060894518e-06 0)
(0.00050820889178 -1.54271184181e-06 0)
(0.000508346935811 -1.34138735554e-06 0)
(0.000508469965918 -1.14750625735e-06 0)
(0.00050857699802 -9.6115156167e-07 0)
(0.000508667390787 -7.81820762863e-07 0)
(0.000508740740363 -6.08577343598e-07 0)
(0.000508796795785 -4.40164468152e-07 0)
(0.000508835393435 -2.75090961861e-07 0)
(0.000508856408768 -1.11697555295e-07 0)
(0.000508859723896 5.17901420929e-08 0)
(0.00050884521003 2.17216479195e-07 0)
(0.000508812724384 3.86453503464e-07 0)
(0.000508762121761 5.61356831178e-07 0)
(0.000508693281702 7.43714615562e-07 0)
(0.000508606152706 9.35183875655e-07 0)
(0.000508500815653 1.13720725711e-06 0)
(0.000508377569023 1.35090150909e-06 0)
(0.000508237038692 1.57690645305e-06 0)
(0.00050808031475 1.81517984824e-06 0)
(0.000507909116477 2.06471919049e-06 0)
(0.000507725983656 2.32318606967e-06 0)
(0.000507534486671 2.58640250218e-06 0)
(0.000507339437854 2.84768232907e-06 0)
(0.000507147069949 3.09695628788e-06 0)
(0.000506965122191 3.31964994969e-06 0)
(0.000506802736576 3.49528776996e-06 0)
(0.000506670020646 3.59583007354e-06 0)
(0.000506577065049 3.58384015345e-06 0)
(0.000506532202355 3.41068590169e-06 0)
(0.000506539124717 3.01538128613e-06 0)
(0.000506593278223 2.32472433072e-06 0)
(0.000506675902998 1.25875589799e-06 0)
(0.00050675510029 -2.54404338391e-07 0)
(0.000506773294017 -2.05589889859e-06 0)
(0.000548340752632 3.35829638271e-06 0)
(0.00054836282982 1.59601641532e-06 0)
(0.000548301250881 5.07596187022e-08 0)
(0.000548209579166 -1.11625736428e-06 0)
(0.000548117493591 -1.95115478496e-06 0)
(0.0005480479006 -2.51065073469e-06 0)
(0.00054801169007 -2.85060478611e-06 0)
(0.000548012243784 -3.02052410269e-06 0)
(0.000548047652268 -3.06237350925e-06 0)
(0.000548113045126 -3.01046397904e-06 0)
(0.000548202165725 -2.8921060722e-06 0)
(0.00054830845691 -2.728536188e-06 0)
(0.000548425711777 -2.53592044939e-06 0)
(0.000548548421218 -2.3263017549e-06 0)
(0.000548671914273 -2.10843389952e-06 0)
(0.000548792369561 -1.88848345404e-06 0)
(0.000548906752698 -1.67060312353e-06 0)
(0.000549012717003 -1.45739047683e-06 0)
(0.000549108491188 -1.2502496914e-06 0)
(0.000549192768326 -1.04967395426e-06 0)
(0.000549264604088 -8.55464517198e-07 0)
(0.000549323328212 -6.66900137267e-07 0)
(0.000549368470828 -4.82868380901e-07 0)
(0.000549399703895 -3.01968276141e-07 0)
(0.000549416797437 -1.22592183996e-07 0)
(0.000549419590099 5.70064563624e-08 0)
(0.000549407973615 2.38653673233e-07 0)
(0.000549381891122 4.24198428416e-07 0)
(0.000549341349541 6.15453714434e-07 0)
(0.000549286446675 8.14129738429e-07 0)
(0.000549217413983 1.02175299148e-06 0)
(0.000549134676192 1.23956394565e-06 0)
(0.000549038928908 1.46838458881e-06 0)
(0.000548931234906 1.7084449717e-06 0)
(0.00054881313863 1.95915538802e-06 0)
(0.000548686796161 2.21880777967e-06 0)
(0.000548555113906 2.48418670492e-06 0)
(0.000548421882666 2.75006727285e-06 0)
(0.000548291883608 3.00857593546e-06 0)
(0.000548170927557 3.24839210342e-06 0)
(0.000548065768616 3.4537773674e-06 0)
(0.000547983805385 3.60344149483e-06 0)
(0.000547932458256 3.66929388917e-06 0)
(0.000547918068145 3.61521165364e-06 0)
(0.000547944225352 3.39604083565e-06 0)
(0.000548009236431 2.9573407335e-06 0)
(0.00054810351186 2.23637522001e-06 0)
(0.00054820466715 1.16750046754e-06 0)
(0.000548281768341 -3.04576012198e-07 0)
(0.000548279761236 -2.02323588538e-06 0)
(0.000586969404948 3.27497698777e-06 0)
(0.000587026591118 1.60833807514e-06 0)
(0.000586985768367 1.2629350028e-07 0)
(0.000586898987337 -1.01677219183e-06 0)
(0.000586793623754 -1.85584008357e-06 0)
(0.000586694103451 -2.436905925e-06 0)
(0.00058661419907 -2.80703650698e-06 0)
(0.000586561003512 -3.00940489304e-06 0)
(0.000586536310433 -3.08183311076e-06 0)
(0.000586538554431 -3.05624928866e-06 0)
(0.000586564177695 -2.9588606768e-06 0)
(0.000586608678898 -2.81066006872e-06 0)
(0.000586667314305 -2.62809724106e-06 0)
(0.000586735539609 -2.42378405442e-06 0)
(0.000586809255858 -2.20716372405e-06 0)
(0.000586884920799 -1.98510780674e-06 0)
(0.00058695957239 -1.76242809524e-06 0)
(0.000587030799443 -1.54230369353e-06 0)
(0.000587096683826 -1.32663055754e-06 0)
(0.000587155730613 -1.1163037578e-06 0)
(0.000587206796672 -9.11443425306e-07 0)
(0.000587249024081 -7.11574856106e-07 0)
(0.000587281782034 -5.15772253107e-07 0)
(0.000587304619173 -3.2277445446e-07 0)
(0.000587317227312 -1.31079965117e-07 0)
(0.000587319416925 6.09722313396e-08 0)
(0.000587311104629 2.55130197871e-07 0)
(0.000587292312823 4.53159344915e-07 0)
(0.000587263181751 6.56769987295e-07 0)
(0.00058722399434 8.67536393682e-07 0)
(0.000587175214175 1.08680100514e-06 0)
(0.000587117536841 1.31555665817e-06 0)
(0.000587051954392 1.55429846225e-06 0)
(0.000586979831773 1.80283553713e-06 0)
(0.00058690299233 2.06005116184e-06 0)
(0.000586823806755 2.32359822318e-06 0)
(0.000586745275488 2.58951556894e-06 0)
(0.000586671088184 2.85175066316e-06 0)
(0.000586605634823 3.10157597958e-06 0)
(0.000586553930906 3.32689281489e-06 0)
(0.000586521404725 3.51142917979e-06 0)
(0.000586513476701 3.63386299621e-06 0)
(0.000586534853181 3.66693908667e-06 0)
(0.000586588429674 3.57671534992e-06 0)
(0.000586673802162 3.32213268373e-06 0)
(0.00058678513887 2.85530962158e-06 0)
(0.000586909424148 2.12292423571e-06 0)
(0.000587022338853 1.0711770426e-06 0)
(0.000587094734601 -3.42615789088e-07 0)
(0.000587074208849 -1.96738618105e-06 0)
(0.000622885958874 3.15634284476e-06 0)
(0.000622974619372 1.59354000228e-06 0)
(0.000622953964149 1.87778202086e-07 0)
(0.0006228746249 -9.15225676814e-07 0)
(0.000622761502927 -1.7420543405e-06 0)
(0.000622639608054 -2.3300034153e-06 0)
(0.000622524534504 -2.71853438959e-06 0)
(0.000622426104766 -2.94492105209e-06 0)
(0.000622349081161 -3.04275489406e-06 0)
(0.000622294745088 -3.04118651143e-06 0)
(0.000622262028179 -2.96479059526e-06 0)
(0.000622248465704 -2.83376779643e-06 0)
(0.000622250885723 -2.66435060635e-06 0)
(0.000622265891026 -2.46929777126e-06 0)
(0.000622290169439 -2.25840709486e-06 0)
(0.000622320676807 -2.0390029349e-06 0)
(0.000622354729123 -1.81637588003e-06 0)
(0.000622390033744 -1.59416546811e-06 0)
(0.000622424682281 -1.37468522341e-06 0)
(0.000622457121608 -1.1591939688e-06 0)
(0.000622486114467 -9.48119719016e-07 0)
(0.000622510697382 -7.4124333096e-07 0)
(0.000622530140932 -5.3784916448e-07 0)
(0.000622543915547 -3.36849661013e-07 0)
(0.000622551664745 -1.36890291951e-07 0)
(0.000622553186984 6.35591288683e-08 0)
(0.000622548426804 2.66121117202e-07 0)
(0.00062253747567 4.7242969484e-07 0)
(0.000622520582786 6.84046587987e-07 0)
(0.000622498175911 9.0236874347e-07 0)
(0.00062247089204 1.12852104046e-06 0)
(0.000622439617303 1.36322745954e-06 0)
(0.000622405534707 1.60665319757e-06 0)
(0.000622370177082 1.85820935952e-06 0)
(0.000622335480677 2.11631107508e-06 0)
(0.000622303831927 2.37807942229e-06 0)
(0.000622278095866 2.63897784633e-06 0)
(0.000622261608999 2.89237553724e-06 0)
(0.000622258112318 3.12903449009e-06 0)
(0.000622271591268 3.33652530084e-06 0)
(0.000622305980737 3.49859082758e-06 0)
(0.000622364682941 3.59449978302e-06 0)
(0.000622449850529 3.59846336138e-06 0)
(0.000622561367765 3.47923799857e-06 0)
(0.000622695589088 3.20007331357e-06 0)
(0.000622843599344 2.71930678863e-06 0)
(0.000622990150092 1.9918557646e-06 0)
(0.00062311007642 9.73616908636e-07 0)
(0.000623176341192 -3.68508566877e-07 0)
(0.000623139022934 -1.89121008989e-06 0)
(0.000656076542516 3.00654216606e-06 0)
(0.000656193336206 1.55385473492e-06 0)
(0.000656191795573 2.34714914369e-07 0)
(0.000656121326658 -8.1503993331e-07 0)
(0.000656004409706 -1.6156477161e-06 0)
(0.000655866069583 -2.19736987417e-06 0)
(0.0006557229753 -2.59317906124e-06 0)
(0.000655586907024 -2.83500930458e-06 0)
(0.000655464949218 -2.95234835847e-06 0)
(0.000655360762141 -2.97140330348e-06 0)
(0.00065527548392 -2.91478571272e-06 0)
(0.000655208562286 -2.80150618123e-06 0)
(0.000655158393783 -2.64718005294e-06 0)
(0.000655122806922 -2.46434948523e-06 0)
(0.000655099403424 -2.26285825524e-06 0)
(0.000655085786985 -2.05023510279e-06 0)
(0.000655079705769 -1.83205875401e-06 0)
(0.000655079132369 -1.61228987812e-06 0)
(0.000655082300532 -1.39356369106e-06 0)
(0.000655087713691 -1.17744232005e-06 0)
(0.000655094136555 -9.64629321164e-07 0)
(0.000655100577883 -7.55150535544e-07 0)
(0.00065510627017 -5.48506349497e-07 0)
(0.00065511065013 -3.4380072868e-07 0)
(0.000655113342603 -1.39852430699e-07 0)
(0.000655114149564 6.47062991535e-08 0)
(0.000655113045277 2.71338344647e-07 0)
(0.000655110178198 4.81512483172e-07 0)
(0.000655105879811 6.96611075982e-07 0)
(0.000655100680253 9.17829286359e-07 0)
(0.000655095330079 1.14606014555e-06 0)
(0.000655090826893 1.38175941292e-06 0)
(0.000655088444614 1.62478378967e-06 0)
(0.000655089761766 1.87419572841e-06 0)
(0.000655096683248 2.1280280332e-06 0)
(0.000655111447336 2.38300192161e-06 0)
(0.000655136606158 2.63419365854e-06 0)
(0.000655174963414 2.87464787936e-06 0)
(0.000655229447932 3.09494106788e-06 0)
(0.000655302895938 3.28270749771e-06 0)
(0.000655397710757 3.42215318157e-06 0)
(0.000655515364057 3.49360276925e-06 0)
(0.00065565571473 3.47314803265e-06 0)
(0.000655816104322 3.33250154166e-06 0)
(0.000655990326341 3.03917747304e-06 0)
(0.000656167225579 2.55721974095e-06 0)
(0.000656330172777 1.84864669642e-06 0)
(0.000656453830425 8.77263570127e-07 0)
(0.000656513316445 -3.82715943976e-07 0)
(0.000656460900738 -1.79720940169e-06 0)
(0.000686530049491 2.82923552162e-06 0)
(0.000686671894815 1.49154654186e-06 0)
(0.000686688137506 2.67270215912e-07 0)
(0.000686627174947 -7.18435041072e-07 0)
(0.000686509236246 -1.48099738267e-06 0)
(0.000686359035304 -2.04498772117e-06 0)
(0.000686193806543 -2.43787986904e-06 0)
(0.000686026700846 -2.68685676169e-06 0)
(0.000685866584727 -2.81754844322e-06 0)
(0.000685719062433 -2.85320713295e-06 0)
(0.000685587172522 -2.8143026855e-06 0)
(0.000685472092753 -2.71838615784e-06 0)
(0.000685373709824 -2.58015287306e-06 0)
(0.00068529107853 -2.41163075298e-06 0)
(0.000685222769149 -2.22244010958e-06 0)
(0.000685167120678 -2.02008418064e-06 0)
(0.000685122416966 -1.81024297474e-06 0)
(0.000685087003289 -1.59705308783e-06 0)
(0.000685059358704 -1.38336384746e-06 0)
(0.000685038137005 -1.17096552992e-06 0)
(0.000685022186459 -9.60789039045e-07 0)
(0.000685010556136 -7.53078751445e-07 0)
(0.000685002494626 -5.47541630505e-07 0)