/*--------------------------------*- C++ -*----------------------------------*\
| =========                 |                                                 |
| \\      /  F ield         | OpenFOAM: The Open Source CFD Toolbox           |
|  \\    /   O peration     | Version:  2.4.0                                 |
|   \\  /    A nd           | Web:      www.OpenFOAM.org                      |
|    \\/     M anipulation  |                                                 |
\*---------------------------------------------------------------------------*/
FoamFile
{
    version     2.0;
    format      ascii;
    class       volScalarField;
    location    "0.3";
    object      rho;
}
// * * * * * * * * * * * * * * * * * * * * * * * * * * * * * * * * * * * * * //

dimensions      [1 -3 0 0 0 0 0];

internalField   nonuniform List<scalar> 
400
(
-8.41757686531e+46
1.31960078207e+42
-3.30349330094e+39
9.59407315558e+36
-1.70683820484e+35
-5.02739475377e+33
9.59832248559e+28
6.19921497084e+26
4.90790832024e+27
-4.95518326847e+29
5.90833748142e+35
1.48242532314e+38
1.64593143564e+38
-1.29320867375e+41
2.63401381741e+43
4.42297701908e+46
-1.29648928078e+48
-2.69384010292e+50
2.68311469023e+50
-4.54268444865e+46
-2.05388454439e+48
1.58185956257e+47
-2.5267512883e+41
-3.01369412661e+41
-1.88076115969e+37
6.49567627785e+35
-9.90906972823e+32
-1.48020913769e+29
-3.13075917524e+29
3.95647687466e+34
2.26622168507e+38
1.06228445909e+39
-1.33719658785e+41
4.94577742104e+44
1.16761985765e+47
-5.92156352669e+48
-9.46781007808e+51
1.41747277463e+52
6.06672728037e+51
-4.88494526226e+51
1.21462781301e+53
6.0380781158e+47
-3.18246590376e+46
-1.42538934123e+42
2.04819985428e+41
8.26569643551e+36
-1.90502088871e+35
-2.29400853502e+31
2.03437658084e+31
1.31121184844e+35
7.58303185205e+37
-7.67872371584e+40
8.45942692828e+44
1.01277110875e+47
9.26381309077e+47
-5.55276999653e+52
5.22329198867e+50
8.04315923304e+56
-8.02659811704e+56
-3.45398302515e+52
2.02434416991e+54
-1.32651852691e+53
1.82488126925e+47
9.56321886269e+45
1.25814892866e+41
-8.76287155037e+39
-5.47406406127e+36
7.33793035534e+33
5.16646348122e+34
1.62349745909e+36
-3.77789443398e+40
-1.86630103914e+42
6.09980749983e+46
3.19221282322e+48
-9.11235193584e+52
-3.58142530919e+53
2.68773760009e+58
-2.35922533032e+58
-3.01106343753e+58
2.68331606529e+58
-1.14327896009e+60
6.29565725116e+53
3.00562499196e+52
-1.46168246647e+48
-1.90510535809e+46
8.35306830831e+41
1.08293411069e+40
-1.09745453342e+36
1.4328373996e+35
-6.86807762715e+39
-1.04184464824e+41
1.21281199515e+46
1.41320488853e+47
-1.87068471007e+52
-1.86414377703e+53
5.5738716873e+58
1.67520719973e+59
-7.88920360479e+59
7.88424128282e+59
-1.67018554701e+59
-4.82677134128e+53
3.8956879107e+52
1.58526217263e+48
-3.13177431674e+47
-1.19759047337e+42
1.73726226899e+41
4.45657400274e+35
-2.29384156941e+35
9.51406173102e+31
-1.8204436287e+35
2.54924472556e+39
5.63732413449e+40
-9.39333756983e+45
-1.32171323597e+47
2.23734861163e+52
1.72402446116e+53
-2.69598159077e+58
3.0168991764e+58
2.3711655795e+58
-2.69165339129e+58
1.47946538742e+53
-3.65876243123e+49
-9.80621412992e+48
1.13268165991e+44
6.76595872483e+42
-1.43633763025e+38
-8.11934023252e+36
2.09242666978e+32
-1.08886909036e+32
2.81262248987e+35
1.26322077591e+36
-5.01928786136e+40
9.46704799194e+40
4.28181393546e+46
-5.78614917083e+46
-2.69882519485e+52
3.27242410973e+52
8.1924412979e+56
-8.17753226007e+56
-1.21375233725e+51
-9.94653590774e+48
-1.76216010228e+49
3.80292135107e+44
2.14316900092e+43
-1.05665852696e+39
-2.84505499689e+37
1.35882999808e+33
2.65004194069e+31
2.14310605048e+30
1.69683157127e+32
1.72029172809e+35
2.05622874856e+37
-4.89600895548e+41
-2.4182201735e+42
1.23448057252e+45
1.25598493221e+47
4.92651366966e+51
-6.03214696756e+51
-1.42781753252e+52
9.51617627921e+51
-2.25209728781e+48
2.94672360293e+44
2.86146151969e+43
-1.92244784777e+39
-5.46174328082e+37
3.29075529189e+33
8.32256854477e+31
-9.16520456844e+28
7.9995223254e+29
1.52226705831e+30
4.33629835252e+31
-3.45509217815e+36
-1.74858112395e+38
5.29668581542e+42
-1.37489094946e+43
-3.64210484577e+45
5.7204462939e+46
-2.75654479674e+50
2.74539777089e+50
7.02975147546e+47
3.15181466946e+43
1.1057958164e+43
-1.40783920259e+39
-6.90570595998e+37
5.07469506724e+33
1.50874766904e+32
-1.32696444443e+29
3.68323095923e+29
-1.63353136882e+29
-6.18016081049e+28
-4.70763563617e+30
1.23210090966e+32
1.2301325312e+36
-4.01620997519e+37
-3.32232181147e+42
-9.92603914797e+40
-2.67754496972e+45
9.63850076742e+45
1.07666066768e+46
-6.6119638708e+45
6.41870889764e+41
-1.89779702598e+38
-2.39327673632e+37
3.03110270909e+33
1.19856866617e+32
-6.20058697122e+28
2.57411412009e+28
1.02074339855e+28
-7.4054242986e+27
-3.29634558393e+26
2.90705206267e+26
6.12406771968e+31
-7.11994898138e+32
-3.73648552865e+35
4.55531519628e+37
2.01570495458e+39
-2.59570503694e+40
8.92967953999e+43
-8.46538426196e+43
-1.41224178223e+41
-1.95018212184e+37
-1.28939449007e+37
1.51675605433e+33
1.34079124092e+32
3.58104805838e+30
-7.93241122093e+29
-6.12777085794e+27
-5.23814447352e+26
-1.30095722591e+25
1.06120599037e+24
8.78037042147e+25
2.94103903484e+27
-2.99755165789e+31
5.65624107928e+32
4.51387381351e+36
9.59262908009e+34
8.59676136107e+38
-4.61920901869e+39
-5.78572306724e+39
3.6958600444e+39
-7.35085048762e+35
5.96714482379e+32
2.11412018984e+31
-3.57180747088e+31
1.25487491504e+31
2.73803220232e+30
1.61462978673e+26
-5.30100283019e+24
3.52032712942e+23
1.90517613352e+23
-2.81345069746e+23
-1.95940462458e+26
3.80171597427e+26
6.43567944722e+29
-3.49849177073e+31
-2.52241793397e+33
7.80675675269e+34
-4.85299965427e+37
4.57043366061e+37
2.04650720106e+35
1.62642876506e+32
-6.29770632981e+31
4.52152920006e+30
-1.24797714876e+29
-4.60990753395e+30
-1.97216294409e+26
8.2189229483e+25
1.0127949438e+24
1.13948214259e+23
-2.42596125938e+22
5.11295642628e+22
1.58671478815e+22
1.93073393716e+26
-9.22344975831e+26
-2.78940507731e+30
-3.15699580255e+29
-1.25459137682e+33
6.30367716928e+33
7.30757653687e+33
-4.71569609442e+33
3.95494829577e+30
1.57934420634e+31
1.15541419582e+30
5.14564730636e+29
5.1873043441e+26
3.62410379246e+26
-5.60123297941e+25
-1.25145631744e+25
3.58190020245e+22
9.47680214073e+22
-3.34915522884e+21
3.01480150497e+22
-2.55509608722e+23
1.11490994411e+25
-1.16887703878e+27
-3.79872781284e+28
-5.3598809805e+29
5.34230588979e+31
-7.22147496884e+31
-1.03487624488e+31
-4.62608107863e+30
9.25858490773e+29
-5.95124006043e+28
1.50180246652e+26
-6.25435202761e+24
-7.94984299293e+25
-8.28845473232e+25
-9.50602029369e+23
4.0343451686e+22
-3.04658192921e+23
8.16426403408e+22
1.33210516831e+23
3.25946706412e+23
-2.2298579055e+25
1.60794265338e+26
-1.61517316034e+28
-1.03790493758e+29
-3.04973642819e+29
-2.60259252211e+30
-3.56577017275e+30
3.17712161103e+29
1.29156382531e+29
-1.11646365429e+28
2.20855299637e+27
3.31280595668e+25
-3.5544668466e+25
-6.36873987161e+24
-4.42838169029e+24
-3.42576978944e+23
5.63551315832e+22
-5.45883170184e+22
3.24707453412e+21
-1.48449320923e+23
-3.09531058632e+23
-7.17939669545e+25
3.91424292532e+26
-2.93587740031e+28
3.45915215145e+28
-1.10027522585e+30
-2.23450253471e+31
-7.11509510976e+31
1.1821827932e+29
-1.87261608712e+27
4.49148832523e+26
1.40267409772e+27
6.88252729629e+25
-1.09547937161e+25
-4.35187415084e+24
-6.2291274392e+23
1.35765363045e+23
-3.33457111416e+19
-2.93168147677e+21
-9.10175946126e+21
1.52036087293e+23
1.84980048483e+25
-7.19489038926e+25
-8.50085892093e+26
1.42588882917e+29
7.42045432004e+31
-7.71540060309e+31
-5.32046623485e+31
-1.54097477989e+31
1.68763674018e+28
-6.30358455875e+27
1.28952361692e+26
3.35898163991e+26
2.26048800202e+25
-4.44116415122e+24
-1.93377823808e+24
8.20093840833e+23
1.02548572338e+24
-2.05230121267e+21
-2.33456382836e+21
-2.22658572948e+23
-2.13091622874e+24
5.52085131604e+26
9.33706491417e+27
-1.46535979046e+31
-5.98822087379e+31
9.5684943978e+32
5.96852674478e+31
-2.40085556082e+28
-1.68727464227e+27
3.11310021582e+27
-8.47710442342e+26
-9.47594414271e+25
1.2254572902e+25
1.62129680551e+24
2.90201756456e+24
-6.15944241915e+24
2.26320918518e+24
6.73495383118e+23
2.58179810789e+21
7.24370948423e+21
-8.94303754845e+23
-1.71326282536e+25
2.76698955813e+27
6.01046899902e+28
-6.11905099241e+31
-1.14976309832e+32
)
;

boundaryField
{
    top
    {
        type            bounceBack;
        value           uniform 1;
    }
    bottom
    {
        type            bounceBack;
        value           uniform 1;
    }
    left
    {
        type            cyclic;
    }
    right
    {
        type            cyclic;
    }
    frontAndBack
    {
        type            empty;
    }
}


// ************************************************************************* //
