/*--------------------------------*- C++ -*----------------------------------*\
| =========                 |                                                 |
| \\      /  F ield         | OpenFOAM: The Open Source CFD Toolbox           |
|  \\    /   O peration     | Version:  2.4.0                                 |
|   \\  /    A nd           | Web:      www.OpenFOAM.org                      |
|    \\/     M anipulation  |                                                 |
\*---------------------------------------------------------------------------*/
FoamFile
{
    version     2.0;
    format      ascii;
    class       volVectorField;
    location    "0.3";
    object      U;
}
// * * * * * * * * * * * * * * * * * * * * * * * * * * * * * * * * * * * * * //

dimensions      [0 1 -1 0 0 0 0];

internalField   nonuniform List<vector> 
400
(
(-0.20802006681 -1.15267049198 0)
(5.20224941183 -6.27184848809 0)
(2.65524850196 -5.36406884948 0)
(-2.49454035245 -2.08275671358 0)
(-2.16517161901 -1.05875016581 0)
(1.02609112992 -1.63274343052 0)
(1.04053710739 1.55610977183 0)
(14.7558493189 -2.27470215012 0)
(-0.357135517501 -0.563343465872 0)
(-1.06796750175 -0.676003604581 0)
(-1.1349769261 -0.0329046484848 0)
(-2.89250998637 -0.966146554179 0)
(-4.51018480619 -2.22059296851 0)
(-0.887214852522 -0.986882423768 0)
(-3.26000716996 -1.06292794772 0)
(-0.57423577785 -1.1063203436 0)
(-0.725981887614 -1.13462533667 0)
(-1.0785888492 -1.16193607854 0)
(-1.07884380252 -1.16190016706 0)
(1.86082294301 -0.924252661059 0)
(-0.891275420331 1.29235979836 0)
(0.612658340195 0.0125878416596 0)
(0.592400774749 0.175474176373 0)
(0.152787235323 -0.946886132982 0)
(0.304970384205 1.07977011013 0)
(0.135291877222 -0.446523640464 0)
(1.20315300286 -1.26569172458 0)
(1.81301218698 -0.527281911455 0)
(-1.11025056044 -0.523927633924 0)
(-1.12655863594 -0.145717364822 0)
(-1.12652614808 -0.116303232451 0)
(10.8599856497 2.17773566918 0)
(-1.01893882955 -0.692129692472 0)
(-3.61463412851 -0.947380768537 0)
(-1.0337270916 -0.934517097643 0)
(-1.02317984745 -1.01850317664 0)
(-1.25742268644 -1.17225464094 0)
(-0.912998847234 -1.30349378566 0)
(5.09380727237 -1.88816946231 0)
(0.720053316386 -0.934884516027 0)
(0.341932133375 1.98084332776 0)
(-0.16255852758 -0.841023828391 0)
(-0.896283824175 -0.851546395895 0)
(0.507534905013 7.23835342452 0)
(0.450081308177 1.98639058442 0)
(-0.811840370075 -0.251345577801 0)
(0.766881729054 0.186511854712 0)
(1.25804680833 -0.261598091542 0)
(-1.1585051473 0.0658125318412 0)
(-1.17848259576 -0.396478362385 0)
(-1.16581893262 -0.0439188808044 0)
(-1.13326814734 -0.479325576888 0)
(-1.12833073093 -0.0891668489507 0)
(-1.16768273503 -0.581804854176 0)
(-16.6544231261 -2.85053289046 0)
(-1.7117963353 -1.05471352536 0)
(-120.964497763 -102.686094821 0)
(-5.13862817246 -1.12866607667 0)
(-5.13962025997 -1.12879970323 0)
(4.59525388679 0.441849841657 0)
(-0.714753407379 -0.102964931106 0)
(-0.452801221427 -0.637508304492 0)
(-0.264453107055 2.94272291574 0)
(-2.73202119112 -10.8971908106 0)
(8.00287032894 2.99214736094 0)
(0.975795796716 4.70528571674 0)
(1.17462190455 0.0962411370389 0)
(0.967773147351 2.54740330793 0)
(-1.17516115765 -0.151388601865 0)
(-1.1370299996 -0.183775732229 0)
(-1.17610768771 -0.162205096293 0)
(-1.17862452818 -0.0770068918659 0)
(-1.18229275596 -0.173931829786 0)
(-1.12580165619 -0.20153835874 0)
(-1.14075020938 -0.156523179162 0)
(5.85424852755 1.04643856891 0)
(-4.16735922238 -0.997879015214 0)
(-3.21000207364 -1.65763093495 0)
(-4.84132494277 0.0531188366337 0)
(-2.90879853109 -0.256745435978 0)
(-0.854481411336 -0.0753196017464 0)
(2.46775054221 0.254353806935 0)
(1.14401844135 0.356821763105 0)
(1.11929196193 0.0452504792181 0)
(1.15971507647 0.0826067180799 0)
(1.16849655897 0.00881244556748 0)
(1.15767105173 0.0178962730641 0)
(1.12740071259 0.00163704609073 0)
(-1.81214903148 -0.00264650004862 0)
(-1.15799882869 -0.000738986602111 0)
(-1.15971617554 -0.00725025455877 0)
(-1.15744435753 -0.00337689713625 0)
(-1.23121622805 -0.0365400699957 0)
(-1.16189652321 -0.0155883893939 0)
(-1.0826594293 -0.198415269074 0)
(-1.1282705851 -0.0743092439826 0)
(2.71697782625 0.331503233299 0)
(698.549291295 84.248015243 0)
(697.915946858 84.161220498 0)
(-2.72182649726 -0.3322778589 0)
(4.64740880941 0.895849782381 0)
(4.87163706235 -1.69240113985 0)
(1.78453778178 -0.480677909145 0)
(1.11938802651 -0.111210364093 0)
(1.11598559582 -0.436621580297 0)
(1.16832444924 0.0284502272457 0)
(1.12796918958 -1.48304440788 0)
(1.16335768839 0.0497259926641 0)
(-10.1925177393 79.8321370771 0)
(-0.942105939501 -0.796394966723 0)
(-0.882086596742 -2.32001850982 0)
(-2.65968271762 -2.650419442 0)
(-1.02549506117 -1.11395751262 0)
(-1.06520452188 -0.935748382376 0)
(-1.03819381761 -0.867119564286 0)
(1.7947173423 0.240168309802 0)
(2.86047798491 0.259729719017 0)
(4.74442079962 -0.0561102340929 0)
(3.1771220271 1.65537329275 0)
(4.11480032535 0.998323455459 0)
(15.4986759158 7.06105771162 0)
(-3.36799030989 -1.68148529478 0)
(1.21201133312 0.246078416768 0)
(1.09921834118 0.373241672183 0)
(1.1564385546 0.0721971516583 0)
(1.19931067052 0.067351323343 0)
(1.16127478309 0.035195315626 0)
(1.11028975487 0.00975765001074 0)
(-1.10640800018 -0.297776014499 0)
(-1.06660509912 -0.168090694192 0)
(-2.86593471192 -1.83025044995 0)
(-3.09351318456 -1.39139071039 0)
(-0.654102082968 0.12385215514 0)
(-1.62872857784 -0.573111440164 0)
(-4.36123441463 -1.19551346105 0)
(-1.54027556983 -0.0431817209679 0)
(-4.7183302008 -0.451104005774 0)
(5.06593230129 1.12761073215 0)
(5.06624922569 1.12748396768 0)
(51.8698908076 43.4541021652 0)
(-6.11967839121 -3.27973079277 0)
(1.46185163248 0.886952143375 0)
(1.76320620692 0.822611837177 0)
(1.15305640283 0.420592378491 0)
(1.13047342119 0.261811360219 0)
(1.18352782614 0.302210826835 0)
(1.19065709146 0.159795313069 0)
(1.37546038316 0.322602452591 0)
(-1.75166212018 -0.710012276081 0)
(0.363689381235 0.327443312323 0)
(-6.75219279724 -2.24853323392 0)
(-1.0511909422 -1.50938227841 0)
(-0.861260188194 -1.56992335794 0)
(3.97507331613 8.66680105589 0)
(47.1278621041 113.794447366 0)
(-0.799846994916 -1.51150957843 0)
(-0.696195824805 0.933565898187 0)
(-4.97677095802 1.90748697999 0)
(0.895328034826 1.29662075923 0)
(1.23280846525 1.16825827251 0)
(1.19010662205 1.12169469799 0)
(1.76081877902 1.01739200667 0)
(1.03380801598 0.904868424823 0)
(1.1286093199 0.6777293986 0)
(1.12681359761 0.658798231537 0)
(1.17716748968 0.486751641639 0)
(1.1759464 0.503232745341 0)
(20.5573656834 2.89165362923 0)
(1.97705176175 0.406501107922 0)
(-1.37848102504 -0.0785821218017 0)
(-2.02653909702 -0.649897149337 0)
(-0.994002698389 0.427424468615 0)
(-0.344146369803 -0.573321370749 0)
(-0.369885029088 -0.460673829157 0)
(-1.29320631052 -3.33022736767 0)
(-0.746216147236 1.1416878334 0)
(-1.62004267953 0.807621354959 0)
(1.05963158112 1.162116804 0)
(1.05985859801 1.16227745588 0)
(0.732271169339 1.12701238272 0)
(0.941471934372 0.576968360294 0)
(0.587237760135 1.12097640439 0)
(0.99206391438 0.973030145206 0)
(0.947824735413 0.947066059951 0)
(1.06576355489 0.799941320105 0)
(1.0630803073 0.730380619139 0)
(-0.342365362376 0.458224449385 0)
(-3.05761136434 -0.706174953023 0)
(-1.34405216901 -0.882236205273 0)
(2.770842862 1.13618843452 0)
(-1.02242919521 -0.51077220173 0)
(-3.49095548962 -2.32114078119 0)
(-2.60109260268 -1.12579659206 0)
(-2.70801287137 -4.86593465625 0)
(0.245815367062 1.12807608857 0)
(-0.520679051394 1.00947670415 0)
(-0.431886750354 0.795824765956 0)
(-1.03877875972 1.01827118669 0)
(0.219353142335 1.13216213009 0)
(0.316429389378 1.14368636958 0)
(0.103490810715 1.1224953802 0)
(0.341494809447 1.1358444376 0)
(0.5891024509 1.05169630771 0)
(0.892440788482 0.952426688296 0)
(0.912883725856 0.920636453083 0)
(1.12001390383 0.0958676374869 0)
(-1.72561523292 -0.685308673377 0)
(2.03035357651 2.56396445429 0)
(1.21541143586 -1.01901839447 0)
(-1.04428228597 -0.0286884142679 0)
(-1.84168368433 -0.0791070288834 0)
(-1.85094504736 -0.337428724252 0)
(-0.725868276941 -0.134131551124 0)
(-17.1274024964 -6.74728342628 0)
(0.239853822727 1.17919416224 0)
(-0.601042101023 0.994559573947 0)
(0.165123620382 1.96987049854 0)
(0.0618424120997 1.12243243446 0)
(0.0673843973229 1.11907657721 0)
(0.0656654548217 1.12141649388 0)
(0.019871131852 1.36405268672 0)
(0.184372099067 1.16588443745 0)
(0.37770663549 1.40937001231 0)
(-0.446299709013 1.38292508525 0)
(1.6523497161 -1.04283936177 0)
(1.11639547856 -0.262073271016 0)
(1.12835710851 -0.0508072865638 0)
(4.13537462569 0.992325910881 0)
(0.693038534321 1.02588766461 0)
(1.93740652703 0.986699855304 0)
(-0.715963840635 -2.68946281144 0)
(-1.04500723228 0.987282469525 0)
(1.96035148461 0.216477045313 0)
(0.40296608783 0.95021077286 0)
(0.053256115404 1.16207771406 0)
(-0.474794980194 1.29202082399 0)
(-0.0529311097721 1.26665742275 0)
(-0.228349167901 1.18948529303 0)
(0.0682849208535 1.15657679024 0)
(0.0803357838266 1.16166604727 0)
(0.0214441207138 1.16226379396 0)
(0.351671883904 0.254427261877 0)
(1.32708431439 2.90075497802 0)
(-5.31183811851 3.01046074411 0)
(-5.2159466138 2.58313465155 0)
(1.12560335163 -0.257766944848 0)
(1.15659649161 -0.162731154836 0)
(0.56866927615 0.762806727208 0)
(0.674513230163 1.41467191937 0)
(4.7098578558 1.4509803092 0)
(-1.52240893679 0.0782771951921 0)
(-1.55507684566 -1.31256944614 0)
(2.23721807448 1.16480970087 0)
(9.05392039725 0.528384630365 0)
(0.0309539812899 1.20504172548 0)
(-0.514343838561 1.24143994464 0)
(-0.0422703092494 1.12804269057 0)
(0.00970351945368 1.16267257248 0)
(0.0101116847045 1.16331965973 0)
(0.0508971117615 1.15457257206 0)
(1.11031422515 -1.77198201634 0)
(0.806974604951 -0.622168450769 0)
(-10.6483609747 6.37050450487 0)
(-85.9609844667 58.8326535139 0)
(-0.440114244679 0.370944104756 0)
(4.0392296964 2.66484649325 0)
(0.249538393695 -0.59305072828 0)
(0.858288130961 -0.960193189318 0)
(1.34873291613 1.39667416705 0)
(9.80838157646 4.02224948761 0)
(-1.51567349321 -1.53005976753 0)
(0.431112082721 3.1083194603 0)
(-0.218713020526 0.771268507375 0)
(-0.852295853102 0.985527964757 0)
(0.00312207372177 1.15275337095 0)
(-0.898863455438 0.819881126075 0)
(0.0199106514756 1.14081681685 0)
(-0.121255477278 1.17872106908 0)
(0.0863555762759 1.13779793371 0)
(0.0360524628098 1.15186533726 0)
(-23.0471742018 26.8351182798 0)
(0.36146438307 0.020371097896 0)
(0.153024153521 1.60738089737 0)
(-1.34078610696 1.07694994195 0)
(-1.23996136722 0.559054884505 0)
(1.05276999127 1.83824717605 0)
(-3.77567492447 -5.42252809025 0)
(1.14536893655 0.868686127773 0)
(3.18914080264 1.09063382243 0)
(-1.63211094177 2.19799248162 0)
(-27.0150176223 6.81993065447 0)
(-1.68476998523 -0.0759480582182 0)
(3.32240274845 2.0838053551 0)
(-5.29990550945 -1.87155689378 0)
(-0.949228542211 0.765078351444 0)
(-1.07209208007 0.792264794211 0)
(1.00670183341 -1.07419723081 0)
(0.155820867156 1.16832813849 0)
(-0.435851638679 1.64450617908 0)
(2.20942026084 -3.25514149675 0)
(1.18871593218 -3.05701619152 0)
(-0.428972079103 -0.271793428855 0)
(0.0569924813268 -1.31529193338 0)
(3.6206356977 -3.07854205231 0)
(38.5671331619 -23.4047783193 0)
(-3.55471192487 -4.41141464652 0)
(1.01003729668 1.0682687083 0)
(1.14663366173 -1.43840969337 0)
(9.79423282949 -10.2738347391 0)
(1.42593784615 -1.24447916057 0)
(-3.35376809445 3.15484887134 0)
(-0.798212166595 -0.317711372374 0)
(2.72147625695 0.944854444355 0)
(-1.08723012615 0.203592293611 0)
(-1.03515239251 0.49812654857 0)
(-1.10680657988 0.642139485333 0)
(9.10750943829 -9.02543572404 0)
(-7.32852558566 8.0054078386 0)
(-0.205960581683 0.736835920825 0)
(-0.450527361898 1.49504956298 0)
(3.36324610925 -8.20603620121 0)
(-0.104180897208 0.813135665703 0)
(2.8676146027 -2.3573891903 0)
(2.85248620082 -3.01088854014 0)
(8.42620002097 -5.66440804018 0)
(0.995723602224 -0.0699664788601 0)
(-13.2029056156 15.0501914422 0)
(1.36708297758 -1.23180287596 0)
(1.95393771653 -1.03312557839 0)
(5.79683577479 -5.40082928779 0)
(-0.209149072873 0.463191523062 0)
(-5.01087308607 0.843964370238 0)
(-0.339982068486 -0.389964774432 0)
(-0.667429832354 1.26958545286 0)
(-1.13794515595 0.504578341687 0)
(-0.934789063631 0.71393375251 0)
(-0.615565017706 1.11255422763 0)
(6.91412320363 -9.31758516569 0)
(-0.403622479581 0.636858143465 0)
(0.536506257535 -1.20270416071 0)
(0.977731352486 -1.25186617535 0)
(0.894575086361 -0.860163767556 0)
(-2.49518596072 2.42185033173 0)
(-7.69964979786 8.81375167941 0)
(1.07854934552 -1.3692247304 0)
(0.785626958452 -1.07689193676 0)
(7.35972248899 -8.39541123073 0)
(1.79772028009 -1.71983978512 0)
(0.860268154858 -0.668520061996 0)
(0.969618119201 -1.22141487998 0)
(-104.01479418 89.5486806622 0)
(1.06755784385 -1.00190738803 0)
(-1.2002703291 -0.0155118119332 0)
(-0.786694526788 0.688499637677 0)
(-1.13561948938 -0.0980410714214 0)
(-2.0071867802 1.0281114722 0)
(-1.99749632987 0.681703377161 0)
(-1.40537929933 1.57492821128 0)
(-0.243897053681 -0.0651880528714 0)
(-5.50867534743 6.09829467391 0)
(-3.30760207714 4.09609771143 0)
(1.13052181901 -0.737328301367 0)
(0.606169561986 -0.349581171392 0)
(-1.47796932136 1.93392087085 0)
(-15.1623439062 17.3291152084 0)
(0.648737185738 -0.624915267116 0)
(1.8478043086 -1.22069651173 0)
(2.44935043209 -1.35635697368 0)
(0.542350461992 -0.325851037844 0)
(-17.4335719185 8.88661820658 0)
(1.55038599211 -0.945157304338 0)
(-9.56057070611 3.22916082426 0)
(5.37995272311 -1.85472545108 0)
(-1.15895604906 0.163688199461 0)
(-1.35633766242 0.124369690153 0)
(-1.24985975086 0.170142593131 0)
(-0.998955415317 0.905628037324 0)
(-1.13374533979 0.778951594967 0)
(3.41797805739 -4.20476515675 0)
(-26.1463902502 32.0885956275 0)
(-0.0508465263075 0.32681846581 0)
(-1.16297998314 1.42933991794 0)
(1.30787850519 -1.12479527325 0)
(-1.33530258985 1.88274924493 0)
(1.04420699522 -1.14092403059 0)
(-0.629169921914 1.05022357622 0)
(-0.290468369761 0.564678574125 0)
(-1.10136216678 0.348187462947 0)
(2.33090407414 -1.41942815352 0)
(-0.860407502255 0.352031462284 0)
(-4.61952703685 2.51028710543 0)
(1.12535088282 -0.310031459781 0)
(-1.05757449602 -0.0355144573637 0)
(-0.136367818105 -1.4260506589 0)
(-1.14755895785 0.351455458613 0)
(-1.11683656036 0.41761383458 0)
(-1.1183408468 0.548606525952 0)
(-1.02792033662 1.16643619385 0)
(-0.98286536457 1.20606511217 0)
(3.24520284848 -3.64643350002 0)
)
;

boundaryField
{
    top
    {
        type            fixedValue;
        value           uniform (0.1 0 0);
    }
    bottom
    {
        type            fixedValue;
        value           uniform (0 0 0);
    }
    left
    {
        type            cyclic;
    }
    right
    {
        type            cyclic;
    }
    frontAndBack
    {
        type            empty;
    }
}


// ************************************************************************* //
