/*--------------------------------*- C++ -*----------------------------------*\
| =========                 |                                                 |
| \\      /  F ield         | OpenFOAM: The Open Source CFD Toolbox           |
|  \\    /   O peration     | Version:  2.4.0                                 |
|   \\  /    A nd           | Web:      www.OpenFOAM.org                      |
|    \\/     M anipulation  |                                                 |
\*---------------------------------------------------------------------------*/
FoamFile
{
    version     2.0;
    format      ascii;
    class       volScalarField;
    location    "0.1";
    object      rho;
}
// * * * * * * * * * * * * * * * * * * * * * * * * * * * * * * * * * * * * * //

dimensions      [1 -3 0 0 0 0 0];

internalField   nonuniform List<scalar> 
100
(
1.00000002247
1.00000000385
1.0000000363
0.999999996266
1.00000003746
0.999999995703
1.000000038
0.999999997107
1.00000003643
0.999999995195
0.999999956208
1.00000003185
1.00000002692
1.00000001214
1.00000002584
1.00000001274
1.00000002799
1.00000001097
1.00000002009
1.00000001738
0.99999995452
1.00000000213
1.00000001377
1.00000000145
1.00000001053
1.00000000221
1.00000001066
1.0000000046
1.0000000093
0.999999996718
0.999999993212
1.00000001449
0.999999976417
1.00000001355
0.99999997745
1.00000001362
0.999999977372
1.00000001388
0.999999979156
1.00000000772
1.00000000115
0.99999998487
0.999999999073
0.999999985345
0.99999999922
0.999999985336
0.999999999209
0.999999985237
0.99999999949
0.999999986198
0.999999992265
0.999999991888
0.999999997715
0.99999999181
0.999999997573
0.999999991832
0.999999997573
0.999999991825
0.999999997526
0.999999992742
1.00000000175
0.99999999881
0.999999997618
0.999999999538
0.999999997721
0.999999999507
0.999999997722
0.999999999508
0.99999999772
0.999999999527
0.999999994783
1.00000000019
1
0.999999999994
0.999999999829
1.00000000002
0.999999999829
1.00000000002
0.999999999829
1.00000000002
1.00000000834
0.999999998456
0.999999999823
1.00000000007
1.00000000001
0.999999999999
1.00000000001
1
1.00000000001
1
0.999999992146
1.00000000072
1.00000000027
0.999999999946
0.999999999999
1
1
1
1
1
)
;

boundaryField
{
    top
    {
        type            bounceBack;
        value           uniform 1;
    }
    bottom
    {
        type            bounceBack;
        value           nonuniform 0();
    }
    left
    {
        type            cyclic;
    }
    right
    {
        type            cyclic;
    }
    frontAndBack
    {
        type            empty;
    }
    procBoundary2to0
    {
        type            processor;
        value           nonuniform List<scalar> 10(1.00000000782 1.00000002596 0.999999935543 1.00000002301 0.999999938629 1.00000002292 0.999999939132 1.00000002111 0.999999936623 1.00000003478);
    }
    procBoundary2to3
    {
        type            processor;
        value           nonuniform List<scalar> 10(1.00000011324 0.999999978598 0.99999998744 1.00000000416 0.999999991277 0.999999997772 1.00000000001 1 1 1);
    }
    procBoundary2to3throughleft
    {
        type            processorCyclic;
        value           nonuniform List<scalar> 10(1.00000002185 0.999999931713 1.00000003065 0.999999976347 0.999999994044 0.99999999933 1.00000000567 0.999999998869 1.00000000897 0.999999999381);
    }
}


// ************************************************************************* //
