/*--------------------------------*- C++ -*----------------------------------*\
| =========                 |                                                 |
| \\      /  F ield         | OpenFOAM: The Open Source CFD Toolbox           |
|  \\    /   O peration     | Version:  2.4.0                                 |
|   \\  /    A nd           | Web:      www.OpenFOAM.org                      |
|    \\/     M anipulation  |                                                 |
\*---------------------------------------------------------------------------*/
FoamFile
{
    version     2.0;
    format      ascii;
    class       volVectorField;
    location    "0.1";
    object      U;
}
// * * * * * * * * * * * * * * * * * * * * * * * * * * * * * * * * * * * * * //

dimensions      [0 1 -1 0 0 0 0];

internalField   nonuniform List<vector> 
100
(
(-3.14698009647e-07 -9.83147353155e-08 0)
(-4.19662177874e-07 2.38314900576e-08 0)
(-3.01105376041e-07 -8.81230270145e-08 0)
(-4.16768943813e-07 1.51359014395e-08 0)
(-3.02982043743e-07 -8.61376978386e-08 0)
(-4.1748873271e-07 1.52806545852e-08 0)
(-3.03012578132e-07 -8.60544774861e-08 0)
(-4.16806177706e-07 1.18483667422e-08 0)
(-3.01796106794e-07 -8.20881114824e-08 0)
(-4.21569572795e-07 2.59912022911e-08 0)
(-1.11968653525e-06 1.18433090182e-07 0)
(-1.01555153873e-06 -3.48618347384e-08 0)
(-1.08283199531e-06 1.25338204373e-07 0)
(-1.03013779227e-06 -3.31386885053e-08 0)
(-1.08148074683e-06 1.23285024893e-07 0)
(-1.02984591804e-06 -3.2902781774e-08 0)
(-1.08299893028e-06 1.23558457831e-07 0)
(-1.03235398858e-06 -3.25503056769e-08 0)
(-1.06628056731e-06 1.2199123192e-07 0)
(-1.05188781785e-06 -3.30877540929e-08 0)
(-1.80385738755e-06 -2.2218165534e-08 0)
(-1.72512423715e-06 2.45368390603e-08 0)
(-1.73585367264e-06 -4.25780674642e-08 0)
(-1.73906516926e-06 2.50299770963e-08 0)
(-1.73498270162e-06 -4.21029003161e-08 0)
(-1.73858181235e-06 2.50690415267e-08 0)
(-1.73487077694e-06 -4.20423389117e-08 0)
(-1.73964304982e-06 2.72959575179e-08 0)
(-1.73545636254e-06 -4.43556326707e-08 0)
(-1.73836225582e-06 1.53752108772e-08 0)
(1.16197332717e-05 2.43484387778e-09 0)
(1.16075186471e-05 6.3670572509e-09 0)
(1.16077715751e-05 -3.49874367943e-09 0)
(1.16091791317e-05 4.00798942764e-09 0)
(1.16080357975e-05 -2.63033864514e-09 0)
(1.16092091336e-05 3.96984560298e-09 0)
(1.16080805922e-05 -2.68900744219e-09 0)
(1.16089957083e-05 3.79369311944e-09 0)
(1.16058618272e-05 -1.11211906587e-09 0)
(1.16114818227e-05 5.63490930116e-09 0)
(4.29100841715e-05 4.06232408008e-09 0)
(4.29054201122e-05 -1.49488640848e-08 0)
(4.29065303235e-05 6.91197956803e-09 0)
(4.2906376825e-05 -1.47161083602e-08 0)
(4.29065304718e-05 6.91846213498e-09 0)
(4.29063731333e-05 -1.47219807949e-08 0)
(4.29065292435e-05 6.91140200479e-09 0)
(4.29064518995e-05 -1.47341650467e-08 0)
(4.29064623735e-05 6.94370107947e-09 0)
(4.29069861476e-05 -1.33721993936e-08 0)
(0.000291322487646 -5.68838238555e-09 0)
(0.000291326067803 -2.67956050843e-09 0)
(0.000291325570075 -5.99528576072e-09 0)
(0.000291325594235 -2.63755977554e-09 0)
(0.000291325580381 -5.97328784761e-09 0)
(0.000291325608653 -2.64038744763e-09 0)
(0.000291325576991 -5.97330514627e-09 0)
(0.000291325612518 -2.64135611724e-09 0)
(0.00029132555295 -6.03098023015e-09 0)
(0.000291325658276 -2.46680838659e-09 0)
(0.00213082402139 -1.61037346717e-09 0)
(0.00213082032737 6.64679388709e-11 0)
(0.00213082133125 -1.47842817507e-09 0)
(0.0021308212773 3.83730720987e-11 0)
(0.00213082127007 -1.47577116142e-09 0)
(0.00213082126683 3.80524500986e-11 0)
(0.00213082127323 -1.47599490952e-09 0)
(0.00213082126661 3.81608703158e-11 0)
(0.0021308212719 -1.4725764669e-09 0)
(0.00213082126624 5.33962353752e-11 0)
(0.0141099697456 7.59069575048e-10 0)
(0.0141099736375 4.00105885846e-11 0)
(0.0141099731448 -5.32961522136e-12 0)
(0.0141099731348 6.536177849e-12 0)
(0.0141099731495 2.60280998188e-11 0)
(0.0141099731463 3.43609862779e-12 0)
(0.0141099731476 2.56391088959e-11 0)
(0.0141099731463 3.5270987519e-12 0)
(0.0141099731476 2.56386197039e-11 0)
(0.0141099731452 2.74127595619e-12 0)
(0.0494485302518 -1.54461164791e-12 0)
(0.0494485224423 -6.85189787911e-11 0)
(0.0494485243872 2.27409757732e-11 0)
(0.0494485243217 6.81715100989e-13 0)
(0.0494485242852 2.91880755674e-12 0)
(0.0494485242923 1.60441104846e-13 0)
(0.0494485242919 3.89211579629e-12 0)
(0.0494485242921 1.75207071074e-15 0)
(0.0494485242918 3.88867063546e-12 0)
(0.0494485242921 -2.33840724562e-15 0)
(0.11348686821 -1.80893296902e-09 0)
(0.113486875019 -3.09796327257e-10 0)
(0.113486874352 1.06217687395e-10 0)
(0.113486874243 -5.25721827211e-12 0)
(0.113486874282 -2.0084489627e-12 0)
(0.113486874279 3.62543328691e-13 0)
(0.113486874278 1.90125692967e-14 0)
(0.113486874278 -3.10237946444e-14 0)
(0.113486874278 4.16333634234e-17 0)
(0.113486874278 -1.21430643318e-15 0)
)
;

boundaryField
{
    top
    {
        type            fixedValue;
        value           uniform (0.1 0 0);
    }
    bottom
    {
        type            fixedValue;
        value           nonuniform 0();
    }
    left
    {
        type            cyclic;
    }
    right
    {
        type            cyclic;
    }
    frontAndBack
    {
        type            empty;
    }
    procBoundary2to0
    {
        type            processor;
        value           nonuniform List<vector> 10((1.39557797049e-07 9.75084041953e-08 0) (1.49532306909e-07 -3.0079479459e-08 0) (6.78753168948e-08 9.99120002884e-08 0) (1.58458432012e-07 -2.76920493875e-08 0) (6.83863318913e-08 9.90332321627e-08 0) (1.5838975192e-07 -2.76938382955e-08 0) (6.79459012874e-08 9.90387135689e-08 0) (1.58532418121e-07 -2.79223813309e-08 0) (7.29518351652e-08 9.8958185728e-08 0) (1.39251592812e-07 -2.50211031344e-08 0));
    }
    procBoundary2to3
    {
        type            processor;
        value           nonuniform List<vector> 10((4.89284519589e-07 1.44676738914e-07 0) (1.62579771283e-06 -1.0228053084e-07 0) (4.87032937175e-06 3.4366824412e-08 0) (2.57514401832e-05 -2.07413821366e-09 0) (6.51967175454e-05 -1.00462115615e-08 0) (0.000252961347921 -6.49523068722e-10 0) (0.00157224219615 4.69030890509e-11 0) (0.0121794900432 -3.19536064275e-15 0) (0.0457241833448 -4.71844785466e-16 0) (0.11360551959 7.97972798949e-15 0));
    }
    procBoundary2to3throughleft
    {
        type            processorCyclic;
        value           nonuniform List<vector> 10((6.01542689236e-07 -2.28559905031e-08 0) (1.6589608127e-06 4.01668538242e-08 0) (4.85872791013e-06 -1.00505116424e-08 0) (2.57525357249e-05 -1.31229264797e-08 0) (6.51974100862e-05 -5.06355738135e-10 0) (0.00025296185495 2.97564181828e-10 0) (0.00157223781291 -4.25638515074e-11 0) (0.0121794907223 2.23824230237e-10 0) (0.0457241759222 1.71245446841e-11 0) (0.113605519756 -3.88506393963e-10 0));
    }
}


// ************************************************************************* //
