/*--------------------------------*- C++ -*----------------------------------*\
| =========                 |                                                 |
| \\      /  F ield         | OpenFOAM: The Open Source CFD Toolbox           |
|  \\    /   O peration     | Version:  2.4.0                                 |
|   \\  /    A nd           | Web:      www.OpenFOAM.org                      |
|    \\/     M anipulation  |                                                 |
\*---------------------------------------------------------------------------*/
FoamFile
{
    version     2.0;
    format      ascii;
    class       volScalarField;
    location    "0.5";
    object      rho;
}
// * * * * * * * * * * * * * * * * * * * * * * * * * * * * * * * * * * * * * //

dimensions      [1 -3 0 0 0 0 0];

internalField   nonuniform List<scalar> 
100
(
-6.94072127935e+171
2.45389883655e+177
8.62559850596e+179
-3.9881325466e+185
6.30529201635e+186
3.63842307033e+193
-8.21890084111e+194
-9.0526108259e+199
9.05112739122e+199
-3.72205484041e+193
1.88300536064e+177
1.05323039827e+180
-4.07971613032e+185
-8.48751006883e+187
9.56754131205e+193
-3.75112407273e+195
-3.15662332663e+201
4.73532716563e+201
2.01461861647e+201
-1.63334027532e+201
4.18831938754e+179
-2.37983681472e+185
-1.48033371213e+188
8.02166566266e+193
1.11954565299e+195
-1.83793380972e+202
2.64458560564e+200
7.86148398903e+208
-7.86037203449e+208
-1.12068837099e+202
-1.16658733091e+185
-5.87248679063e+186
5.00311425613e+193
2.66124450235e+195
-2.99383782764e+202
-1.17813486929e+203
2.60866219287e+210
-2.29374653046e+210
-2.92320682684e+210
2.60833598018e+210
-3.26817472643e+185
1.0060874598e+193
1.17260814125e+194
-6.22744976237e+201
-6.20623247938e+202
5.40790701324e+210
1.62255821409e+211
-7.64992579905e+211
7.64955252333e+211
-1.6221938714e+211
8.82452329556e+183
1.78652430816e+185
-8.04899636537e+192
-1.11284541503e+194
7.62628338804e+201
5.73703591949e+202
-2.60913169761e+210
2.92347593676e+210
2.2945052631e+210
-2.60880580693e+210
4.65707902203e+177
-1.5158841875e+185
3.723090759e+185
3.57150847944e+193
-4.7443403198e+193
-9.05779547595e+201
1.11772103894e+202
7.87001307526e+208
-7.86890662118e+208
-2.74075230609e+200
5.8289109259e+177
2.14472410335e+179
-2.85387181148e+186
-1.29264013261e+187
1.03890513346e+192
1.06367693988e+194
1.63397240108e+201
-2.01407598159e+201
-4.73711606794e+201
3.15730112883e+201
3.45275390401e+171
-3.74691757577e+178
-1.69428840024e+180
2.73263956408e+187
-6.38126319353e+187
-3.03587740188e+192
4.79695155544e+193
-9.06300496232e+199
9.06151802422e+199
7.9515184418e+194
3.46806482712e+169
3.63998176122e+171
7.07778610799e+177
-5.55463726614e+179
-1.57281042036e+187
-3.63971682211e+185
-2.21547859179e+192
7.95881759535e+192
8.92837212944e+192
-5.47182103087e+192
)
;

boundaryField
{
    top
    {
        type            bounceBack;
        value           nonuniform 0();
    }
    bottom
    {
        type            bounceBack;
        value           uniform 1;
    }
    left
    {
        type            cyclic;
    }
    right
    {
        type            cyclic;
    }
    frontAndBack
    {
        type            empty;
    }
    procBoundary1to0
    {
        type            processor;
        value           nonuniform List<scalar> 10(1.48642620214e+161 3.0773328244e+163 -6.03801856056e+168 -7.75057301763e+169 1.08928146925e+176 5.19811742286e+168 -8.34453071298e+168 6.96522126828e+162 -1.36834469617e+162 2.23324477476e+156);
    }
    procBoundary1to0throughright
    {
        type            processorCyclic;
        value           nonuniform List<scalar> 10(2.5071552961e+185 6.24533590722e+186 -1.13672116815e+194 -1.85334955393e+195 2.33263395736e+203 4.5708897788e+194 -1.39568268576e+194 2.0461915896e+187 5.71387623163e+186 -2.56140737105e+179);
    }
    procBoundary1to3
    {
        type            processor;
        value           nonuniform List<scalar> 10(-4.58861791572e+155 -1.70555318582e+162 1.85583699028e+164 3.07213422799e+169 -2.97262730899e+171 -3.20461486886e+175 4.16215986119e+176 -2.7556616816e+182 2.61235193986e+182 4.02694469422e+177);
    }
}


// ************************************************************************* //
