/*--------------------------------*- C++ -*----------------------------------*\
| =========                 |                                                 |
| \\      /  F ield         | OpenFOAM: The Open Source CFD Toolbox           |
|  \\    /   O peration     | Version:  2.4.0                                 |
|   \\  /    A nd           | Web:      www.OpenFOAM.org                      |
|    \\/     M anipulation  |                                                 |
\*---------------------------------------------------------------------------*/
FoamFile
{
    version     2.0;
    format      ascii;
    class       volVectorField;
    location    "0.5";
    object      U;
}
// * * * * * * * * * * * * * * * * * * * * * * * * * * * * * * * * * * * * * //

dimensions      [0 1 -1 0 0 0 0];

internalField   nonuniform List<vector> 
100
(
(-1.12968148099 -0.663445257996 -0)
(-1.00894818912 -0.802712312312 0)
(-1.21870003401 -1.02977589938 0)
(-0.882028916494 -0.985779160715 -0)
(0.175768573087 -0.788669139852 0)
(-0.572678379257 -1.10666251217 0)
(-0.732573206349 -1.13661665326 -0)
(-1.06963960155 -1.16190429926 -0)
(-1.06964888886 -1.16190421168 0)
(1.85364816829 -0.923829675875 -0)
(-1.11811775451 -0.576522036065 0)
(-1.15760123374 -0.367543069204 0)
(-1.08335004211 -0.713327452856 -0)
(-2.49352806562 -1.04126824969 -0)
(-1.02997332575 -0.935112664754 0)
(-0.985555454504 -1.01204352066 -0)
(-1.24628294859 -1.17084654359 -0)
(-0.904646047945 -1.30037056352 0)
(5.03997051286 -1.89778957305 0)
(0.708076455401 -0.934153183208 -0)
(-1.16681381495 -0.0518823164374 0)
(-1.18312164551 -0.489179723197 -0)
(-1.12604513247 -0.0926816180064 -0)
(-1.17212941185 -0.589603077388 0)
(-11.4209903564 -2.13290852456 0)
(-1.70020800091 -1.05242717436 -0)
(-79.3788347804 -66.961271175 0)
(-5.10490330271 -1.12823944851 0)
(-5.10494212599 -1.12823989698 -0)
(4.65422817476 0.446265299394 -0)
(-1.1764012805 -0.164834825345 -0)
(-1.17839880416 -0.0769355187603 -0)
(-1.18254982766 -0.176034454833 0)
(-1.12613621427 -0.201311561709 0)
(-1.14082816219 -0.159040799337 -0)
(5.89860427446 1.05759998652 -0)
(-4.14254547718 -0.998136745782 0)
(-3.19439717333 -1.65658554287 -0)
(-4.7952828119 0.0545598068242 -0)
(-2.88601753386 -0.258172515011 0)
(-1.15971541134 -0.00722781778189 -0)
(-1.15744479886 -0.00336758423355 0)
(-1.23119363886 -0.0365038167344 0)
(-1.16190895873 -0.0155511741169 -0)
(-1.08265444882 -0.198241314642 -0)
(-1.1282093002 -0.0742196656461 0)
(2.71929001269 0.331878486493 0)
(13543.7117395 1633.34746917 -0)
(13543.2999785 1633.28739499 0)
(-2.71959051956 -0.331924903346 -0)
(-0.907534779622 -2.10484633959 0)
(-1.76137303135 -2.06793397402 0)
(-1.02976658945 -1.07993935586 -0)
(-1.0544153708 -0.920021548937 -0)
(-1.04056019979 -0.850661152262 0)
(1.80425713663 0.241701088309 0)
(2.88317632122 0.258345357005 -0)
(4.78971512615 -0.0547482807814 0)
(3.19247765198 1.65640594451 0)
(4.13946900536 0.998165396908 -0)
(-1.28527597897 -1.69500786666 0)
(-2.12012840523 -0.776065897193 -0)
(-1.10934869362 0.0170719284298 0)
(-1.59480638062 -0.554061025518 0)
(-4.45385123491 -1.2223749984 -0)
(-1.53944958106 -0.0421741933652 -0)
(-4.65994643827 -0.446692848936 0)
(5.10062446319 1.12817036075 0)
(5.10066085251 1.12816991351 -0)
(76.5813523389 64.555480176 -0)
(-2.89852360357 -0.78468381627 0)
(-1.02039146662 -1.45862635432 0)
(-1.03989511755 -1.43827043082 -0)
(3.86739305899 8.10492235936 -0)
(55.9586509942 128.069368559 0)
(-0.916374605079 -1.64108524004 0)
(-0.706902308591 0.934090954838 0)
(-5.03360065702 1.89869947853 -0)
(0.903748337916 1.3000272209 -0)
(1.24513050469 1.17070519274 0)
(-0.680610117062 0.478467219397 0)
(-0.784022757244 0.415502923628 -0)
(-0.340351535336 -0.584609498604 -0)
(-0.360257868391 -0.370129835926 0)
(-1.50149955432 -3.43265263443 -0)
(-0.743566907402 1.1399045521 -0)
(-1.6269824712 0.808736026546 0)
(1.068694042 1.16191556804 -0)
(1.06870329829 1.16191597221 0)
(0.727506293852 1.12728125013 0)
(-1.11203336299 3.74916881882 0)
(0.19778896938 -0.0512439560693 0)
(-2.45755115652 -0.773075496454 0)
(-2.13502609959 -3.3967625781 -0)
(0.267606879113 1.12792584658 -0)
(-0.380211360619 1.02756588671 -0)
(-0.427319670907 0.810783546316 -0)
(-1.05193360104 1.02221912506 0)
(0.220953539094 1.13216100351 0)
(0.318962078057 1.14380929571 -0)
)
;

boundaryField
{
    top
    {
        type            fixedValue;
        value           nonuniform 0();
    }
    bottom
    {
        type            fixedValue;
        value           uniform (0 0 0);
    }
    left
    {
        type            cyclic;
    }
    right
    {
        type            cyclic;
    }
    frontAndBack
    {
        type            empty;
    }
    procBoundary1to0
    {
        type            processor;
        value           nonuniform List<vector> 10((-1.07251109717 -0.662689382004 0) (-1.20097702736 -0.394064117361 0) (-1.17839717661 -0.407232192008 -0) (-1.1369502564 -0.183715278519 -0) (-1.15800377132 -0.000730538140873 0) (-0.901201283757 -1.05096586281 0) (-1.0352879453 -0.11395838924 -0) (0.742832308717 3.31464073105 0) (35.4274582177 7.19789521485 -0) (-9.8968256549 -5.49832179079 0));
    }
    procBoundary1to0throughright
    {
        type            processorCyclic;
        value           nonuniform List<vector> 10((-0.192160605911 -1.15277402713 0) (-0.931455962198 1.31370373277 0) (0.296647401052 1.94559772362 -0) (-0.711148767948 -0.102081206399 -0) (-0.853115431133 -0.0749902579258 0) (4.03996611316 0.645652629953 0) (13.5648899248 6.25046810779 -0) (-5.97773855392 -3.24028653084 0) (1.15946380293 1.12105749859 0) (1.20701923364 0.909950379176 -0));
    }
    procBoundary1to3
    {
        type            processor;
        value           nonuniform List<vector> 10((-1.73008130735 0.587208192451 -0) (-1.51696411397 -0.430867651306 -0) (-0.684140425299 -0.194148073787 0) (-3.73163464852 -2.80735460544 0) (0.276956803949 1.18256991417 -0) (-0.601515764365 1.00119366106 -0) (0.165740748354 1.96141742175 0) (0.0621850034376 1.12255413473 -0) (0.0701109362658 1.11919196672 0) (0.0502167142112 1.12242443137 0));
    }
}


// ************************************************************************* //
