/*--------------------------------*- C++ -*----------------------------------*\
| =========                 |                                                 |
| \\      /  F ield         | OpenFOAM: The Open Source CFD Toolbox           |
|  \\    /   O peration     | Version:  2.4.0                                 |
|   \\  /    A nd           | Web:      www.OpenFOAM.org                      |
|    \\/     M anipulation  |                                                 |
\*---------------------------------------------------------------------------*/
FoamFile
{
    version     2.0;
    format      ascii;
    class       volScalarField;
    location    "0.4";
    object      rho;
}
// * * * * * * * * * * * * * * * * * * * * * * * * * * * * * * * * * * * * * //

dimensions      [1 -3 0 0 0 0 0];

internalField   nonuniform List<scalar> 
400
(
-1.08007663076e+114
1.2860084526e+108
-3.70850062858e+105
2.7194570647e+101
-7.02173356431e+99
-3.53684861244e+94
4.13302962219e+92
2.69776477267e+88
1.11541291655e+89
-1.5955805367e+93
-8.00193408383e+95
1.33960604052e+100
5.27127154673e+102
-1.15777588308e+107
2.19706774245e+108
5.85226328671e+113
-1.41660123695e+115
-7.78700630702e+118
7.78139398603e+118
-5.99030558227e+113
-2.67830016361e+115
1.96569297833e+114
-2.88056419026e+107
-4.13816403676e+107
-7.90626624511e+101
3.1571403213e+100
1.07368256243e+94
2.93559977964e+90
-1.01239450741e+93
-3.85916973659e+95
1.02779753635e+100
6.60668198741e+102
-1.18394936961e+107
-2.65290197828e+109
1.54013295356e+114
-6.47298897609e+115
-2.71884455165e+120
4.077440756e+120
1.73657457002e+120
-1.40636582368e+120
3.47316065897e+121
7.95611294662e+114
-4.06995706093e+113
-1.88483726567e+108
3.27393729096e+107
6.45829770046e+101
-1.08554843435e+100
-1.83855382304e+93
-1.83023095003e+95
4.89745100472e+99
2.5137189859e+102
-6.90550597798e+106
-4.6946287101e+109
1.29126805576e+114
1.66386388891e+115
-1.58513057971e+121
2.14342135906e+119
3.72502070733e+126
-3.72278702164e+126
-9.69860378227e+120
5.6835540466e+122
-3.78210358747e+121
2.28688337047e+114
1.2837980627e+113
7.94431313343e+106
-1.59795052944e+106
-3.7393588452e+101
6.15089218542e+98
1.9698568467e+99
6.26877052945e+100
-3.38575904688e+106
-1.69854548885e+108
8.05341279168e+113
4.26989538277e+115
-2.58544919798e+121
-1.01715079562e+122
1.237850456e+128
-1.08793754514e+128
-1.38702378755e+128
1.23720313831e+128
-5.26114832643e+129
1.80206345384e+122
8.55542050177e+120
-1.87872691471e+115
-2.5228146178e+113
7.17424556346e+107
9.7687747917e+105
-4.05644540583e+100
5.5185454092e+99
-6.2372289247e+105
-9.45996720237e+106
1.61561266509e+113
1.88293550147e+114
-5.36563547892e+120
-5.34709583668e+121
2.5663399023e+128
7.70276776539e+128
-3.63062426724e+129
3.62988346376e+129
-7.69553361696e+128
-1.39341536296e+122
1.14055090525e+121
1.38789801732e+115
-4.1325011114e+114
-8.4911772444e+107
1.55867732395e+107
1.1002648897e+100
-8.72166808938e+99
-3.96425340696e+96
-4.57331549278e+99
2.5138015951e+105
5.16020737824e+106
-1.28365641751e+113
-1.78133470125e+114
6.54380006084e+120
4.94327201666e+121
-1.23879949045e+128
1.38757752998e+128
1.08945950524e+128
-1.23815493036e+128
4.25756185933e+121
-4.00451726604e+116
-1.07337509709e+116
7.10073033266e+109
4.60446591061e+108
-4.28844971724e+102
-2.5310532084e+101
3.67492939589e+95
1.43597784325e+94
7.30214839104e+99
2.87865088088e+100
-4.41379844724e+106
1.04231007295e+107
5.72829116396e+113
-7.64728516478e+113
-7.79306869418e+120
9.58804044876e+120
3.74224894788e+126
-3.74006265436e+126
-2.51179198549e+119
-9.62976037592e+115
-1.94815659894e+116
2.23136765967e+110
1.39467269981e+109
-3.12926411529e+103
-8.67841548588e+101
2.40962328216e+96
6.8292913442e+94
-6.48390589277e+93
-5.84879496441e+94
2.63627801677e+100
1.0727827696e+102
-7.56255899731e+107
-3.45837806871e+108
1.65800424551e+112
1.70118854287e+114
1.40873730485e+120
-1.73454579563e+120
-4.08407651399e+120
2.72146839302e+120
-2.53996061158e+115
1.52930935342e+110
1.87433402632e+109
-5.56121026921e+103
-1.65709035405e+102
5.73916445851e+96
1.60827442838e+95
-8.24375753455e+89
-1.05293992792e+89
1.30083412325e+94
3.09149990935e+95
-1.87024425311e+101
-8.60839569805e+102
7.36325239149e+108
-1.74567747434e+109
-4.86896912604e+112
7.68779723738e+113
-7.82568523026e+118
7.82001666161e+118
1.18954302136e+115
1.62747128353e+109
7.38270759346e+108
-3.90407054489e+103
-2.0921777548e+102
8.7215553474e+96
2.82618250186e+95
-1.55543514572e+90
-4.42812212356e+88
5.22411665035e+88
-1.21458063826e+88
1.6986878744e+93
3.198024834e+95
4.12775100148e+100
-2.65180029169e+102
-4.29294778065e+108
-1.02543904738e+107
-3.55953198639e+112
1.27931968122e+113
1.43365380786e+113
-8.78840604993e+112
4.45112964992e+107
-5.51492975348e+102
-7.29254179836e+101
4.97888415829e+96
2.2780049919e+95
-1.53803187216e+90
-4.99786767495e+88
3.88348815666e+83
-2.72310817159e+82
-7.16898535833e+87
6.17669152145e+88
2.54174907913e+94
-1.89672272753e+96
-2.22306485413e+100
2.2547364434e+102
1.83336852354e+105
-2.3785197076e+106
1.17867067731e+111
-1.11712019422e+111
-2.1176310863e+107
-6.5641316796e+101
-3.9635768025e+101
2.66820481822e+96
1.74717343125e+95
-1.44605076367e+90
-5.5978222661e+88
5.01836745944e+83
1.55801288023e+82
1.3304611419e+81
-2.50300912645e+82
-2.89951939981e+87
-4.40859631603e+87
-3.53979693015e+94
8.7186751505e+95
2.21017887488e+101
4.14249278273e+99
8.05733023307e+104
-4.20242423272e+105
-5.26098045052e+105
3.35179812607e+105
-2.32067557821e+100
4.74272424875e+95
6.0945867168e+94
-7.07683255953e+89
-3.91222266203e+88
4.46261671614e+83
1.65166955936e+82
-2.43613163487e+77
7.49089682314e+75
1.84224783515e+81
-1.71734658234e+82
-2.34492262112e+87
4.60981363327e+88
2.95697843517e+93
-1.96355384898e+95
-9.82422903951e+97
3.04930898076e+99
-4.34496646023e+103
4.09898268897e+103
1.04316401731e+100
5.64721492004e+94
2.83160406605e+94
-3.25333894982e+89
-2.40481868144e+88
3.00283274432e+83
1.33883955441e+82
-2.26079451073e+77
-7.68207161314e+75
-8.53490623249e+74
1.45438740653e+75
1.18696133612e+81
3.95756506131e+82
1.42922400739e+87
-6.84411258806e+88
-1.48832646146e+94
-3.68743060121e+92
-4.87180757295e+97
2.42625459025e+98
2.78999168811e+98
-1.82806311677e+98
1.62139033188e+93
-6.04413212052e+88
-7.48798692718e+87
1.2709656441e+83
7.5799356216e+81
-1.52464325371e+77
-6.19864993798e+75
1.37893186582e+71
3.22262105895e+69
-4.29772466022e+74
-3.56585436415e+75
-3.78063999559e+80
-1.04437491258e+82
2.49143185632e+86
2.41401573618e+88
8.21225815368e+90
-1.98346366551e+92
2.36872220087e+96
-2.23627026737e+96
-6.61125359282e+92
-6.08705690952e+87
-2.88459934443e+87
4.7946944518e+82
3.74872756506e+81
-8.17914879086e+76
-4.01005896894e+75
9.64666038887e+70
3.50901694476e+69
-2.61658699719e+69
8.46703780154e+69
-4.80272646234e+73
-2.6830082722e+75
-4.57813915786e+80
6.59751452544e+81
1.4479276962e+87
4.34462923389e+85
3.20867251016e+90
-1.69567099575e+91
-1.8609507582e+91
1.2537084183e+91
-1.6136587009e+86
8.93039389384e+81
1.08868664991e+81
-3.14128654579e+76
-1.98066038675e+75
5.47336336156e+70
2.35419225369e+69
-9.12753904783e+64
-6.96855318374e+65
-5.80928708614e+68
8.61191520019e+69
3.03842296166e+74
2.72549539537e+75
-8.77545076484e+79
-3.35727483786e+81
-9.13286590603e+83
1.94830586366e+85
-1.61682916056e+89
1.52617488456e+89
6.14804196581e+85
8.2013203282e+80
3.62274194924e+80
-1.03500136166e+76
-8.44970758612e+74
2.5415295505e+70
1.30516502008e+69
-5.6332033462e+64
-2.18488668834e+63
1.54284414116e+63
-2.22682046272e+65
-8.43158638176e+68
7.46588849991e+69
1.22769527801e+74
-8.113782176e+74
-1.68182137131e+80
-6.01451580191e+78
-3.10048878448e+83
1.71517466815e+84
1.79335927581e+84
-1.24131484583e+84
1.97821112468e+79
-1.91111762375e+75
-2.30410958902e+74
8.98012419985e+69
5.78141514468e+68
-2.81997330623e+64
-1.27642464335e+63
6.51623635607e+58
-4.96337150387e+59
1.35540011593e+63
-5.17290963077e+63
-3.56811788638e+68
-1.07187078691e+69
2.81731985106e+73
7.00285577922e+74
1.21826507808e+77
-2.32330686318e+78
1.59340973015e+82
-1.50446105081e+82
-6.58628331807e+78
-1.65648594634e+74
-6.73763657436e+73
2.66471271567e+69
2.12229850392e+68
-1.14534047684e+64
-5.90266169191e+62
3.27175206533e+58
1.35885880709e+57
-1.91519773612e+55
-2.41315069591e+59
7.1341207815e+62
-5.02018859824e+63
-7.14975771874e+67
4.79928802949e+67
3.01009544443e+73
1.16545268657e+72
3.64104705691e+76
-2.12591484866e+77
-2.07614333572e+77
1.49059382818e+77
)
;

boundaryField
{
    top
    {
        type            bounceBack;
        value           uniform 1;
    }
    bottom
    {
        type            bounceBack;
        value           uniform 1;
    }
    left
    {
        type            cyclic;
    }
    right
    {
        type            cyclic;
    }
    frontAndBack
    {
        type            empty;
    }
}


// ************************************************************************* //
