/*--------------------------------*- C++ -*----------------------------------*\
| =========                 |                                                 |
| \\      /  F ield         | OpenFOAM: The Open Source CFD Toolbox           |
|  \\    /   O peration     | Version:  2.4.0                                 |
|   \\  /    A nd           | Web:      www.OpenFOAM.org                      |
|    \\/     M anipulation  |                                                 |
\*---------------------------------------------------------------------------*/
FoamFile
{
    version     2.0;
    format      ascii;
    class       volVectorField;
    location    "0.4";
    object      U;
}
// * * * * * * * * * * * * * * * * * * * * * * * * * * * * * * * * * * * * * //

dimensions      [0 1 -1 0 0 0 0];

internalField   nonuniform List<vector> 
400
(
(-0.195430437831 -1.15274333752 0)
(3.34974214715 -4.07191074642 0)
(2.49797133848 -4.02127615156 0)
(-2.14867712779 -1.85221391683 0)
(-2.50785148618 -1.08172755409 0)
(1.11907498226 1.09703640948 0)
(0.927385548358 1.37882432753 0)
(0.728913110245 -0.920233429455 0)
(-1.13907053185 -0.442231498379 0)
(-1.07254201458 -0.662672488132 0)
(-1.13519423222 -0.653112095967 0)
(-1.00904545136 -0.802628827893 0)
(-1.2474935799 -1.0265138436 0)
(-0.882127903536 -0.985736874828 0)
(0.315414993174 -0.811370944035 0)
(-0.572986850032 -1.10660888697 0)
(-0.731347643991 -1.13603726907 0)
(-1.07119433497 -1.16189150567 0)
(-1.07123678848 -1.16188986604 0)
(1.85488350195 -0.923911057481 0)
(-0.923225829434 1.30956779641 0)
(0.627085999604 0.019794319432 0)
(0.427929712375 0.104903430002 0)
(0.0257851438468 -1.03363819783 0)
(0.138691580992 0.275597780854 0)
(0.0517788002305 -0.605764714816 0)
(-0.668444429883 -0.31721061609 0)
(99.3360806483 -34.172839108 0)
(-1.13730693084 -0.483006500102 0)
(-1.19821245999 -0.383769971785 0)
(-1.11815376829 -0.576472126746 0)
(-1.15589655082 -0.349942424932 0)
(-1.08341030254 -0.713164633876 0)
(-2.58527361123 -1.04120386182 0)
(-1.03027934578 -0.935109913718 0)
(-0.996976082691 -1.01364625833 0)
(-1.24819798439 -1.17108080347 0)
(-0.906130994155 -1.30093420443 0)
(5.0503737354 -1.8962520074 0)
(0.710057705514 -0.934262169743 0)
(0.304144205033 1.95149533172 0)
(-0.141810031089 -0.824849488869 0)
(-0.874317794327 -0.756423000237 0)
(0.740095469087 4.17423147653 0)
(0.427743196109 1.69580749991 0)
(-0.488416325747 -0.30548352058 0)
(0.793563992702 0.0161593793761 0)
(5.98004612738 -16.9015853562 0)
(-1.28761004929 -0.0464399661028 0)
(-1.17846197076 -0.407188023989 0)
(-1.16636135458 -0.0486203708277 0)
(-1.18321551633 -0.489027735146 0)
(-1.12620091507 -0.0916834885902 0)
(-1.17220909875 -0.58925095705 0)
(-12.3517452725 -2.25624385746 0)
(-1.70221384537 -1.05282730162 0)
(-84.4075154152 -71.2871186566 0)
(-5.11179922769 -1.12834512071 0)
(-5.11198165138 -1.12835329876 0)
(4.64464817677 0.445548356229 0)
(-0.711757463375 -0.102237507946 0)
(-0.457557703226 -0.639354217044 0)
(-0.313946035202 3.18523131758 0)
(-3.2538743782 -12.9058802196 0)
(14.0460170693 5.97558693619 0)
(1.06040687119 3.75490852679 0)
(1.16026920419 0.184651996006 0)
(1.07147250919 1.49920313564 0)
(-1.17568156488 -0.152784676401 0)
(-1.13696181788 -0.183716410089 0)
(-1.17635144384 -0.164396733235 0)
(-1.17844173273 -0.0769596853594 0)
(-1.18250000182 -0.175593781103 0)
(-1.12610475757 -0.201353666258 0)
(-1.14079229814 -0.158599107575 0)
(5.89056355216 1.0556013702 0)
(-4.14756668919 -0.99808821028 0)
(-3.19753523538 -1.65687116181 0)
(-4.80439887907 0.0542523686201 0)
(-2.89064845074 -0.257888543633 0)
(-0.853381364906 -0.0750546255584 0)
(2.41177649033 0.24880610914 0)
(1.14598659492 0.359919580614 0)
(1.11963025109 0.0450459495009 0)
(1.15949259509 0.0833287808811 0)
(1.16870596628 0.00869336181006 0)
(1.15774317466 0.0181234986877 0)
(1.12538968857 0.00160931509045 0)
(-1.81549987392 -0.00264912322755 0)
(-1.158003542 -0.000731060517585 0)
(-1.15971564581 -0.00722971568214 0)
(-1.15744499315 -0.00336891079704 0)
(-1.23119791132 -0.0365102225249 0)
(-1.16190671123 -0.015556005195 0)
(-1.08265304347 -0.198271988748 0)
(-1.12822261378 -0.0742379446197 0)
(2.71880301741 0.331802675222 0)
(3146.24553048 379.435430885 0)
(3145.81489069 379.373080063 0)
(-2.72007312422 -0.331999455028 0)
(4.13389323969 0.684022183787 0)
(4.79354213726 -1.65906992771 0)
(2.18582908842 -0.782320536393 0)
(1.11927300068 -0.109849492437 0)
(1.15334464327 -0.595032626244 0)
(1.16834251984 0.0292530513619 0)
(1.27895667762 -2.10501720812 0)
(1.16336207443 0.0500167938119 0)
(7.23631344472 -73.6526997576 0)
(-0.906454613666 -1.00105082588 0)
(-0.903540768498 -2.13848304991 0)
(-1.84317096795 -2.12290701495 0)
(-1.02887041156 -1.08708524327 0)
(-1.05660398662 -0.923338739583 0)
(-1.04014868321 -0.853505783407 0)
(1.80256270648 0.241427158734 0)
(2.87855051798 0.258626775498 0)
(4.7806396634 -0.0550511906924 0)
(3.18935398739 1.65612115022 0)
(4.13445504982 0.998207959818 0)
(13.86084857 6.37548010642 0)
(-3.29502772901 -1.65739833534 0)
(1.22976305869 0.243608094794 0)
(1.09462340831 0.377562102686 0)
(1.154737495 0.0778946856832 0)
(1.20200723625 0.0679047155667 0)
(1.16211375879 0.040350809711 0)
(1.17470857591 0.00568084184204 0)
(1.88914973342 -0.324642789737 0)
(-1.04279634301 -0.125033286955 0)
(-1.91096383912 -1.72132105792 0)
(-2.20984502882 -0.832920755738 0)
(-1.06603497126 0.0275031381396 0)
(-1.60176335544 -0.557956410405 0)
(-4.4294376526 -1.21528762427 0)
(-1.53953271685 -0.0423402883915 0)
(-4.66948937631 -0.447408619315 0)
(5.0935843048 1.1280569804 0)
(5.09372269829 1.12804889881 0)
(71.9797243389 60.6055591216 0)
(-5.98166532654 -3.22995362106 0)
(1.44436239869 0.886212005944 0)
(1.83081032217 0.868894952785 0)
(1.15964174837 0.428874329488 0)
(1.12986902795 0.266122683352 0)
(1.18295452176 0.307575363583 0)
(1.19398533444 0.165504735895 0)
(1.18227988071 0.250117769276 0)
(-1.26688896463 -0.196356599712 0)
(-2.74580111936 3.38492385416 0)
(-2.7479171362 -0.768521935101 0)
(-1.02616830164 -1.47213049448 0)
(-1.02450603513 -1.45771973063 0)
(3.87870478508 8.19044769542 0)
(54.1950131266 125.364032169 0)
(-0.892817823392 -1.61242712932 0)
(-0.704976935679 0.933990966314 0)
(-5.02307411161 1.9002007166 0)
(0.902260936704 1.29945146226 0)
(1.24318225976 1.17043766626 0)
(1.16559302051 1.12119266147 0)
(1.7862391153 1.03784263612 0)
(1.02850151724 0.905899320643 0)
(1.13010362627 0.695121426721 0)
(1.12613155567 0.661083372912 0)
(1.1759556794 0.503987128839 0)
(1.15674799491 0.497864953778 0)
(1.08403691612 0.357919626292 0)
(2.93348330373 -0.277681923728 0)
(14.874966925 3.25676365479 0)
(-0.705834092203 0.478387311467 0)
(-0.820251211194 0.410028411298 0)
(-0.340794037878 -0.582514783464 0)
(-0.361747980116 -0.383049214091 0)
(-1.4721876693 -3.42117700572 0)
(-0.744291263639 1.14027760399 0)
(-1.62576678858 0.808504506684 0)
(1.06711185124 1.16193861715 0)
(1.06715365547 1.16194613489 0)
(0.728317020139 1.12722128687 0)
(1.19145553274 0.880258856517 0)
(0.581817430853 1.12147555388 0)
(0.985600125814 0.977952685096 0)
(0.946745927098 0.947398433144 0)
(1.05737173614 0.816751945567 0)
(1.06258525595 0.731875312971 0)
(1.13278547868 0.629481969917 0)
(1.11350839401 0.579725504435 0)
(0.573228595301 0.297771492558 0)
(-3.7177172364 -3.93317110205 0)
(-1.00517330847 7.09933680905 0)
(0.475429036439 0.0109384507899 0)
(-2.45290397088 -0.846429683014 0)
(-2.21285640647 -3.61985729112 0)
(0.264215808506 1.12792852812 0)
(-0.403558636181 1.02453395283 0)
(-0.428181420959 0.807746860689 0)
(-1.04937717482 1.02142118978 0)
(0.220617515831 1.13215931295 0)
(0.318531813383 1.14383901167 0)
(0.0898469607699 1.12191900266 0)
(0.385574049225 1.12559745984 0)
(0.590623588667 1.05225254317 0)
(0.875161967108 0.959542793529 0)
(0.916316959673 0.896329218921 0)
(1.04390981459 0.802602669573 0)
(1.06507629061 0.734613641343 0)
(1.11712983029 0.644779831628 0)
(-1.40548659452 0.954750464206 0)
(-0.429560701471 1.01403998906 0)
(-1.91279346231 0.728130026205 0)
(-1.48406521722 -0.411633952325 0)
(-0.703603529493 -0.214525481962 0)
(-4.68335261693 -3.16263438122 0)
(0.269195198674 1.18198376974 0)
(-0.601789727343 1.00014977961 0)
(0.165097414965 1.96196823751 0)
(0.0621000209253 1.12254517791 0)
(0.0695332098808 1.11918140791 0)
(0.0519570779325 1.12226707242 0)
(0.153776301714 1.25549840292 0)
(0.184280681299 1.16618521535 0)
(0.393329709886 1.18774215736 0)
(0.545491563682 1.11817591306 0)
(0.753199364419 1.05401039619 0)
(0.842207628512 0.978871354281 0)
(0.955555120565 0.904385866088 0)
(0.981707477957 0.829155220425 0)
(-0.918309563539 1.01328317598 0)
(-0.926964218932 0.905501536181 0)
(-0.372920834799 2.21233464429 0)
(-0.802940651897 -8.50665739737 0)
(0.466902227207 0.175072304033 0)
(0.541267013533 1.03776511048 0)
(0.055913186707 1.16204751429 0)
(-0.418135440201 1.27338008678 0)
(-0.0570985645037 1.25361300856 0)
(-0.231216707546 1.1881795767 0)
(0.0681155116867 1.1565769684 0)
(0.0810477409163 1.16059396301 0)
(0.0201300163015 1.16314641216 0)
(0.172890203362 1.21374433871 0)
(0.51832478716 1.18794673993 0)
(0.616967759353 1.17608253478 0)
(0.734593181445 1.07737617222 0)
(0.832708193915 1.02215958442 0)
(0.885356439595 0.933150762071 0)
(0.956561202799 0.876359148261 0)
(-2.34023114402 0.954508901135 0)
(-0.69270621631 1.19307079227 0)
(-0.825408116204 -0.429194565894 0)
(-1.28276888458 -0.142174127281 0)
(2.43106012811 1.33421118336 0)
(4.84454552501 0.464175286156 0)
(0.0424934328665 1.1997495902 0)
(-0.515923814922 1.23874814243 0)
(-0.0394902734355 1.12788108985 0)
(0.00965891081853 1.16271481762 0)
(0.0107597110899 1.16321057205 0)
(0.0390014929975 1.15665477384 0)
(0.0244720363946 1.15943914893 0)
(0.0808640429956 1.16329245425 0)
(0.227341615486 1.18138504974 0)
(0.431526713036 1.12692190455 0)
(0.580861476679 1.11799417834 0)
(0.701406046462 1.04312361265 0)
(0.804415938873 1.0055896783 0)
(0.860403915415 0.931093031986 0)
(-0.771159246521 1.06400270584 0)
(-0.00947600597843 1.70437354129 0)
(-0.0360769981554 1.40507313866 0)
(-0.254906203391 0.250974299617 0)
(0.64582631206 -0.506588858246 0)
(0.283974113409 1.08895634442 0)
(0.0127255807935 1.15748421244 0)
(-0.377519017847 1.19167500517 0)
(0.0205521131534 1.14175041851 0)
(-0.0760607384593 1.15787816608 0)
(0.0493472460303 1.15543356896 0)
(0.0262943990139 1.15901009406 0)
(0.00931485546383 1.15771002639 0)
(0.0986524986246 1.18529656816 0)
(0.390262648662 1.18903243692 0)
(0.428088724093 1.18391911056 0)
(0.577855710068 1.11757938069 0)
(0.657466296033 1.0978230028 0)
(0.745949389285 1.02113098772 0)
(0.803826994248 0.97741052923 0)
(-2.17654387603 9.69934352227 0)
(-0.467509592986 1.18003842528 0)
(-0.933765439155 1.26827535802 0)
(-1.13152237548 0.169054044189 0)
(0.815541616868 1.15530683095 0)
(-5.66628220258 1.46330048689 0)
(0.0073714038568 1.18315727211 0)
(-0.370214007743 1.19650151922 0)
(-0.0824475941144 1.16415286552 0)
(0.00205778991895 1.15734182422 0)
(0.00228482559587 1.15728697575 0)
(0.0443401442196 1.15405686385 0)
(0.00135078182752 1.1713847421 0)
(0.0565568611026 1.16361969535 0)
(0.181082747925 1.18418795252 0)
(0.363865825072 1.14655051337 0)
(0.464990134937 1.15167704437 0)
(0.594749241915 1.09061355303 0)
(0.677444842564 1.07421402053 0)
(0.753743585715 1.00607690279 0)
(0.0623524715609 0.703813995658 0)
(-0.402481109287 0.776251600231 0)
(7.47155902602 6.17727414889 0)
(0.702514391508 1.01766661604 0)
(-2.13129105069 0.837454628031 0)
(0.405968760028 1.07220169931 0)
(0.0034144892017 1.15802544154 0)
(-0.401646325096 1.18673968195 0)
(0.0393871447046 1.15420295517 0)
(-0.053409544627 1.16057925968 0)
(0.0561550296661 1.15657889483 0)
(0.0141768846596 1.15922089557 0)
(0.00691132222877 1.1583987388 0)
(0.076016935343 1.18379693016 0)
(0.317806243063 1.18735315411 0)
(0.339609590145 1.18645670722 0)
(0.481320558965 1.13904736973 0)
(0.540267372187 1.13319573397 0)
(0.640696562449 1.07060458738 0)
(0.667664135769 1.04848599515 0)
(-0.221861227227 1.1528337336 0)
(-1.24865244564 0.445630740739 0)
(-0.754666130501 1.34683276046 0)
(-1.18085664236 0.8775035643 0)
(0.378419116841 1.1870826119 0)
(-1.89335876039 1.36860344712 0)
(0.000662059652844 1.17892912973 0)
(-0.302884258527 1.19692688183 0)
(-0.09008596699 1.16174270559 0)
(0.000453072303557 1.15801250607 0)
(0.000498077699513 1.15802884855 0)
(0.0492506015478 1.15402834834 0)
(-0.00248718548137 1.16803721361 0)
(0.0502186172429 1.16348407625 0)
(0.166712643767 1.18386405023 0)
(0.318326977243 1.15532835453 0)
(0.394036768156 1.16408629193 0)
(0.515895352929 1.11681957897 0)
(0.57926236605 1.11163280498 0)
(0.663272384411 1.05341373731 0)
(-0.899017013879 0.814840827668 0)
(-0.0293617657651 1.15884120436 0)
(-0.986211264073 0.951628850135 0)
(-0.0595381449027 0.930854608088 0)
(-0.858814924078 1.02532610137 0)
(0.694219365997 1.02465961079 0)
(0.001438433314 1.15793481805 0)
(-0.368218720925 1.180659268 0)
(0.0443285676528 1.15244100224 0)
(-0.0515511282072 1.1598279876 0)
(0.0624262617047 1.15671609102 0)
(0.0114917967989 1.15920824392 0)
(0.00626121961995 1.15830633626 0)
(0.066985336399 1.18001560812 0)
(0.274309679809 1.18429675516 0)
(0.292458845941 1.18456354243 0)
(0.417117263236 1.14978571751 0)
(0.463605349523 1.14951773645 0)
(0.56257002724 1.0997178735 0)
(0.602839329591 1.0934290185 0)
(-0.581790261493 1.13338244752 0)
(-0.907700256205 0.957601583809 0)
(-0.970292853733 1.22537244238 0)
(-0.595571388141 1.0824147104 0)
(1.63537164395 1.50568604793 0)
(-1.01519620156 1.26988283663 0)
(-0.000617216599534 1.17500452528 0)
(-0.259626204878 1.19177946861 0)
(-0.0929319231872 1.16246799685 0)
(0.000106614404539 1.15792686143 0)
(0.000113326200133 1.15793650057 0)
(0.056534126594 1.15327927218 0)
(-0.00302612759832 1.13839600713 0)
(0.0424592958023 1.16132376215 0)
(0.132212677907 1.1498970055 0)
(0.255793219762 1.1580073443 0)
(0.300010891091 1.14062149381 0)
(0.414877197693 1.13702236839 0)
(0.445872499582 1.11622407771 0)
(0.625034637368 0.937663107624 0)
(-0.421928340906 -14.9652234225 0)
(-0.289654338967 1.20148942109 0)
(-0.556335828222 1.12262290733 0)
(0.10363475567 1.23194369647 0)
(-0.37481275264 1.12612148074 0)
(2.08044580167 1.02074999071 0)
(0.000922628050565 1.15794560607 0)
(-0.308953926215 1.19403936492 0)
(0.0405509593769 1.15461134234 0)
(-0.0382640515238 1.1486106146 0)
(0.0521077091438 1.16740380467 0)
(0.00960623673239 1.15871411136 0)
)
;

boundaryField
{
    top
    {
        type            fixedValue;
        value           uniform (0.1 0 0);
    }
    bottom
    {
        type            fixedValue;
        value           uniform (0 0 0);
    }
    left
    {
        type            cyclic;
    }
    right
    {
        type            cyclic;
    }
    frontAndBack
    {
        type            empty;
    }
}


// ************************************************************************* //
