/*--------------------------------*- C++ -*----------------------------------*\
| =========                 |                                                 |
| \\      /  F ield         | OpenFOAM: The Open Source CFD Toolbox           |
|  \\    /   O peration     | Version:  2.4.0                                 |
|   \\  /    A nd           | Web:      www.OpenFOAM.org                      |
|    \\/     M anipulation  |                                                 |
\*---------------------------------------------------------------------------*/
FoamFile
{
    version     2.0;
    format      ascii;
    class       volVectorField;
    location    "0.1";
    object      U;
}
// * * * * * * * * * * * * * * * * * * * * * * * * * * * * * * * * * * * * * //

dimensions      [0 1 -1 0 0 0 0];

internalField   nonuniform List<vector> 
400
(
(-2.69798003383e-11 1.63064006742e-16 0)
(-2.69797482966e-11 1.5959455979e-16 0)
(-2.69797101327e-11 2.11636264069e-16 0)
(-2.69796476826e-11 1.52655665886e-16 0)
(-2.69797031938e-11 6.93889390391e-17 0)
(-2.69797968688e-11 1.11022302463e-16 0)
(-2.69797136021e-11 1.21430643318e-16 0)
(-2.69796997243e-11 1.4224732503e-16 0)
(-2.69797274799e-11 9.36750677027e-17 0)
(-2.69797691133e-11 3.81639164715e-17 0)
(-2.69797170716e-11 -3.46944695195e-17 0)
(-2.6979720541e-11 -2.08166817117e-17 0)
(-2.69796789076e-11 -3.12250225676e-17 0)
(-2.69796650298e-11 3.12250225676e-17 0)
(-2.69796823771e-11 6.93889390391e-17 0)
(-2.69797760521e-11 3.81639164715e-17 0)
(-2.69797170716e-11 1.66533453694e-16 0)
(-2.69796407437e-11 5.20417042793e-17 0)
(-2.6979751766e-11 -5.89805981832e-17 0)
(-2.69797691133e-11 5.20417042793e-17 0)
(-1.08269386512e-10 4.85722573274e-16 0)
(-1.08269417737e-10 4.89192020225e-16 0)
(-1.0826946284e-10 4.33680868994e-16 0)
(-1.08269532229e-10 2.70616862252e-16 0)
(-1.08269494065e-10 2.11636264069e-16 0)
(-1.08269514881e-10 2.8449465006e-16 0)
(-1.08269410798e-10 3.46944695195e-16 0)
(-1.08269435084e-10 3.71230823859e-16 0)
(-1.0826945937e-10 1.45716771982e-16 0)
(-1.08269455901e-10 2.01227923213e-16 0)
(-1.08269490595e-10 5.55111512313e-17 0)
(-1.08269608556e-10 9.71445146547e-17 0)
(-1.08269383042e-10 9.36750677027e-17 0)
(-1.08269306714e-10 2.42861286637e-16 0)
(-1.08269452431e-10 2.70616862252e-16 0)
(-1.0826945937e-10 2.74086309204e-16 0)
(-1.08269317123e-10 3.1918911958e-16 0)
(-1.0826933447e-10 1.97758476261e-16 0)
(-1.08269466309e-10 1.17961196366e-16 0)
(-1.08269428145e-10 1.63064006742e-16 0)
(-6.2877491408e-11 5.93275428784e-16 0)
(-6.28775746747e-11 5.89805981832e-16 0)
(-6.28775607969e-11 3.85108611667e-16 0)
(-6.28774116107e-11 3.92047505571e-16 0)
(-6.28773769162e-11 3.29597460436e-16 0)
(-6.28774775302e-11 4.85722573274e-16 0)
(-6.28775261025e-11 4.12864187282e-16 0)
(-6.28775052858e-11 4.30211422042e-16 0)
(-6.28774289579e-11 3.60822483003e-16 0)
(-6.28773734468e-11 2.32452945781e-16 0)
(-6.28775399802e-11 2.04697370165e-16 0)
(-6.28775295719e-11 5.20417042793e-17 0)
(-6.28774150802e-11 3.71230823859e-16 0)
(-6.28773422218e-11 2.87964097012e-16 0)
(-6.28774012024e-11 2.94902990916e-16 0)
(-6.28775712053e-11 2.25514051877e-16 0)
(-6.28775503886e-11 2.87964097012e-16 0)
(-6.28774532441e-11 2.60208521397e-16 0)
(-6.28775018163e-11 2.25514051877e-16 0)
(-6.28773838551e-11 3.1918911958e-16 0)
(1.30955866984e-09 4.89192020225e-16 0)
(1.30955856922e-09 5.51642065361e-16 0)
(1.30955872535e-09 4.23272528138e-16 0)
(1.30955883984e-09 3.88578058619e-16 0)
(1.3095589578e-09 3.67761376907e-16 0)
(1.30955894739e-09 3.98986399475e-16 0)
(1.3095588329e-09 4.82253126322e-16 0)
(1.30955877392e-09 3.74700270811e-16 0)
(1.30955892658e-09 4.7878367937e-16 0)
(1.30955898209e-09 3.85108611667e-16 0)
(1.30955887453e-09 2.671474153e-16 0)
(1.30955881208e-09 1.21430643318e-16 0)
(1.30955891964e-09 1.94289029309e-16 0)
(1.30955882249e-09 2.11636264069e-16 0)
(1.30955882943e-09 1.87350135405e-16 0)
(1.30955880515e-09 6.24500451352e-17 0)
(1.30955883984e-09 1.45716771982e-16 0)
(1.30955875657e-09 4.12864187282e-16 0)
(1.30955872188e-09 4.16333634234e-16 0)
(1.30955877739e-09 5.41233724505e-16 0)
(5.80838202535e-09 4.51028103754e-16 0)
(5.80838218842e-09 5.16947595841e-16 0)
(5.80838227862e-09 5.13478148889e-16 0)
(5.80838228903e-09 4.75314232418e-16 0)
(5.80838226474e-09 5.16947595841e-16 0)
(5.80838227515e-09 5.34294830601e-16 0)
(5.80838226127e-09 6.07153216592e-16 0)
(5.80838224046e-09 5.06539254985e-16 0)
(5.80838250761e-09 6.59194920871e-16 0)
(5.80838231679e-09 5.8633653488e-16 0)
(5.80838210862e-09 4.96130914129e-16 0)
(5.80838226474e-09 2.671474153e-16 0)
(5.8083824174e-09 2.35922392733e-16 0)
(5.80838227515e-09 2.28983498829e-16 0)
(5.80838230985e-09 3.33066907388e-16 0)
(5.80838231332e-09 3.08780778724e-16 0)
(5.8083822578e-09 3.88578058619e-16 0)
(5.80838225434e-09 4.6143644461e-16 0)
(5.80838216413e-09 5.75928194024e-16 0)
(5.80838217454e-09 7.18175519054e-16 0)
(3.95406492271e-09 6.59194920871e-16 0)
(3.95406484638e-09 8.11850586757e-16 0)
(3.95406482209e-09 6.59194920871e-16 0)
(3.95406502679e-09 6.52256026967e-16 0)
(3.95406502332e-09 5.72458747072e-16 0)
(3.95406485679e-09 8.11850586757e-16 0)
(3.95406489842e-09 7.56339435526e-16 0)
(3.95406495393e-09 7.6327832943e-16 0)
(3.95406490883e-09 7.8062556419e-16 0)
(3.95406488107e-09 7.8062556419e-16 0)
(3.95406478393e-09 5.6898930012e-16 0)
(3.95406479434e-09 5.41233724505e-16 0)
(3.95406498863e-09 4.75314232418e-16 0)
(3.95406483944e-09 3.53883589099e-16 0)
(3.95406490536e-09 4.82253126322e-16 0)
(3.95406498863e-09 4.82253126322e-16 0)
(3.95406490536e-09 5.58580959265e-16 0)
(3.95406504761e-09 6.90419943439e-16 0)
(3.95406502679e-09 6.52256026967e-16 0)
(3.95406497128e-09 8.50014503229e-16 0)
(-6.11579453018e-08 9.0552565446e-16 0)
(-6.11579452324e-08 8.32667268469e-16 0)
(-6.1157945281e-08 8.67361737988e-16 0)
(-6.11579453816e-08 8.04911692853e-16 0)
(-6.1157945444e-08 8.11850586757e-16 0)
(-6.11579453746e-08 7.70217223334e-16 0)
(-6.11579453677e-08 8.84708972748e-16 0)
(-6.11579454371e-08 8.32667268469e-16 0)
(-6.11579453434e-08 7.87564458093e-16 0)
(-6.11579454197e-08 8.32667268469e-16 0)
(-6.11579455689e-08 7.49400541622e-16 0)
(-6.11579455898e-08 7.4593109467e-16 0)
(-6.11579454857e-08 7.6327832943e-16 0)
(-6.11579453261e-08 6.48786580015e-16 0)
(-6.115794534e-08 7.66747776382e-16 0)
(-6.11579453781e-08 5.93275428784e-16 0)
(-6.115794534e-08 6.0368376964e-16 0)
(-6.1157945274e-08 7.6327832943e-16 0)
(-6.11579452844e-08 8.29197821517e-16 0)
(-6.11579453746e-08 8.18789480661e-16 0)
(-2.7847427761e-07 1.06512021425e-15 0)
(-2.78474277568e-07 8.63892291036e-16 0)
(-2.78474277617e-07 9.71445146547e-16 0)
(-2.78474277568e-07 9.50628464835e-16 0)
(-2.78474277589e-07 9.85322934355e-16 0)
(-2.78474277544e-07 9.47159017883e-16 0)
(-2.78474277589e-07 8.43075609325e-16 0)
(-2.78474277679e-07 9.08995101412e-16 0)
(-2.78474277714e-07 1.03389519168e-15 0)
(-2.78474277731e-07 8.84708972748e-16 0)
(-2.78474277839e-07 9.19403442268e-16 0)
(-2.78474277797e-07 8.46545056277e-16 0)
(-2.7847427779e-07 1.01654795692e-15 0)
(-2.78474277676e-07 9.92261828259e-16 0)
(-2.7847427761e-07 8.43075609325e-16 0)
(-2.78474277662e-07 8.63892291036e-16 0)
(-2.78474277519e-07 8.53483950181e-16 0)
(-2.78474277606e-07 8.08381139805e-16 0)
(-2.78474277669e-07 7.94503351997e-16 0)
(-2.78474277599e-07 8.36136715421e-16 0)
(-3.10865834637e-07 1.08246744901e-15 0)
(-3.10865834626e-07 1.00960906302e-15 0)
(-3.1086583465e-07 1.0685896612e-15 0)
(-3.10865834626e-07 1.02348685083e-15 0)
(-3.10865834682e-07 8.77770078844e-16 0)
(-3.10865834678e-07 8.84708972748e-16 0)
(-3.10865834619e-07 6.73072708679e-16 0)
(-3.10865834675e-07 8.08381139805e-16 0)
(-3.10865834713e-07 9.19403442268e-16 0)
(-3.10865834709e-07 7.91033905045e-16 0)
(-3.10865834852e-07 9.67975699595e-16 0)
(-3.10865834758e-07 9.29811783124e-16 0)
(-3.10865834748e-07 1.04777297949e-15 0)
(-3.1086583481e-07 9.99200722163e-16 0)
(-3.10865834761e-07 1.01307850997e-15 0)
(-3.10865834633e-07 1.03736463863e-15 0)
(-3.10865834727e-07 1.00267016911e-15 0)
(-3.10865834796e-07 8.01442245901e-16 0)
(-3.10865834581e-07 8.18789480661e-16 0)
(-3.10865834553e-07 8.95117313604e-16 0)
(2.00032676366e-06 1.02348685083e-15 0)
(2.00032676368e-06 9.29811783124e-16 0)
(2.00032676366e-06 9.81853487403e-16 0)
(2.00032676359e-06 9.67975699595e-16 0)
(2.00032676349e-06 7.56339435526e-16 0)
(2.0003267634e-06 7.32053306862e-16 0)
(2.00032676356e-06 5.93275428784e-16 0)
(2.00032676357e-06 6.66133814775e-16 0)
(2.00032676346e-06 5.8633653488e-16 0)
(2.00032676358e-06 6.59194920871e-16 0)
(2.00032676357e-06 6.80011602583e-16 0)
(2.00032676344e-06 7.2858385991e-16 0)
(2.00032676336e-06 7.18175519054e-16 0)
(2.00032676351e-06 8.91647866652e-16 0)
(2.00032676348e-06 9.67975699595e-16 0)
(2.00032676352e-06 1.06512021425e-15 0)
(2.00032676356e-06 1.07899800206e-15 0)
(2.00032676354e-06 9.02056207508e-16 0)
(2.0003267636e-06 9.74914593499e-16 0)
(2.00032676362e-06 9.15933995316e-16 0)
(1.07920419743e-05 8.63892291036e-16 0)
(1.07920419743e-05 8.18789480661e-16 0)
(1.07920419743e-05 7.2858385991e-16 0)
(1.0792041974e-05 8.15320033709e-16 0)
(1.07920419739e-05 6.41847686111e-16 0)
(1.0792041974e-05 6.97358837343e-16 0)
(1.07920419741e-05 6.41847686111e-16 0)
(1.07920419741e-05 6.0368376964e-16 0)
(1.07920419741e-05 5.30825383649e-16 0)
(1.07920419742e-05 5.62050406216e-16 0)
(1.07920419742e-05 6.76542155631e-16 0)
(1.07920419742e-05 6.00214322688e-16 0)
(1.0792041974e-05 6.66133814775e-16 0)
(1.07920419741e-05 6.73072708679e-16 0)
(1.07920419742e-05 6.73072708679e-16 0)
(1.07920419742e-05 8.50014503229e-16 0)
(1.07920419742e-05 1.03042574473e-15 0)
(1.07920419742e-05 7.2858385991e-16 0)
(1.07920419742e-05 8.50014503229e-16 0)
(1.07920419741e-05 7.94503351997e-16 0)
(1.98443462209e-05 7.59808882478e-16 0)
(1.98443462209e-05 7.97972798949e-16 0)
(1.98443462208e-05 6.14092110496e-16 0)
(1.98443462208e-05 5.89805981832e-16 0)
(1.98443462206e-05 6.52256026967e-16 0)
(1.98443462207e-05 6.210310044e-16 0)
(1.98443462208e-05 7.04297731247e-16 0)
(1.98443462208e-05 6.34908792208e-16 0)
(1.98443462207e-05 4.75314232418e-16 0)
(1.98443462208e-05 5.48172618409e-16 0)
(1.98443462208e-05 6.52256026967e-16 0)
(1.98443462207e-05 5.65519853168e-16 0)
(1.98443462207e-05 6.38378239159e-16 0)
(1.98443462208e-05 6.38378239159e-16 0)
(1.98443462209e-05 6.38378239159e-16 0)
(1.98443462211e-05 5.93275428784e-16 0)
(1.98443462209e-05 7.8062556419e-16 0)
(1.98443462209e-05 6.66133814775e-16 0)
(1.98443462208e-05 6.17561557448e-16 0)
(1.98443462209e-05 6.97358837343e-16 0)
(-2.90666553237e-05 6.27969898304e-16 0)
(-2.90666553237e-05 6.31439345256e-16 0)
(-2.9066655324e-05 6.86950496487e-16 0)
(-2.9066655324e-05 5.51642065361e-16 0)
(-2.90666553239e-05 6.38378239159e-16 0)
(-2.90666553238e-05 6.55725473919e-16 0)
(-2.90666553238e-05 6.38378239159e-16 0)
(-2.90666553239e-05 6.10622663544e-16 0)
(-2.90666553239e-05 3.46944695195e-16 0)
(-2.90666553239e-05 4.09394740331e-16 0)
(-2.90666553238e-05 4.09394740331e-16 0)
(-2.90666553238e-05 6.07153216592e-16 0)
(-2.90666553238e-05 5.03069808033e-16 0)
(-2.90666553238e-05 5.93275428784e-16 0)
(-2.90666553238e-05 7.4593109467e-16 0)
(-2.90666553238e-05 6.66133814775e-16 0)
(-2.90666553237e-05 6.34908792208e-16 0)
(-2.90666553238e-05 7.49400541622e-16 0)
(-2.90666553238e-05 6.41847686111e-16 0)
(-2.90666553239e-05 6.93889390391e-16 0)
(-0.000284218998181 4.68375338514e-16 0)
(-0.00028421899818 4.82253126322e-16 0)
(-0.000284218998181 4.30211422042e-16 0)
(-0.000284218998181 4.64905891562e-16 0)
(-0.00028421899818 4.99600361081e-16 0)
(-0.00028421899818 5.06539254985e-16 0)
(-0.00028421899818 4.85722573274e-16 0)
(-0.000284218998181 4.57966997658e-16 0)
(-0.000284218998181 1.87350135405e-16 0)
(-0.000284218998181 2.98372437868e-16 0)
(-0.00028421899818 3.43475248243e-16 0)
(-0.00028421899818 3.95516952523e-16 0)
(-0.000284218998181 4.37150315946e-16 0)
(-0.00028421899818 4.2674197509e-16 0)
(-0.00028421899818 5.55111512313e-16 0)
(-0.00028421899818 4.64905891562e-16 0)
(-0.00028421899818 4.89192020225e-16 0)
(-0.00028421899818 4.92661467177e-16 0)
(-0.00028421899818 5.16947595841e-16 0)
(-0.000284218998181 4.75314232418e-16 0)
(-0.000813517971122 2.11636264069e-16 0)
(-0.000813517971122 4.16333634234e-16 0)
(-0.000813517971122 3.60822483003e-16 0)
(-0.000813517971122 3.88578058619e-16 0)
(-0.000813517971122 4.85722573274e-16 0)
(-0.000813517971122 4.71844785466e-16 0)
(-0.000813517971122 4.54497550706e-16 0)
(-0.000813517971122 3.12250225676e-16 0)
(-0.000813517971122 2.46330733589e-16 0)
(-0.000813517971122 1.94289029309e-16 0)
(-0.000813517971122 2.15105711021e-16 0)
(-0.000813517971122 4.16333634234e-16 0)
(-0.000813517971122 5.10008701937e-16 0)
(-0.000813517971122 2.70616862252e-16 0)
(-0.000813517971122 4.12864187282e-16 0)
(-0.000813517971122 2.49800180541e-16 0)
(-0.000813517971122 3.29597460436e-16 0)
(-0.000813517971122 3.08780778724e-16 0)
(-0.000813517971122 3.53883589099e-16 0)
(-0.000813517971122 2.8449465006e-16 0)
(-0.000853581918 1.94289029309e-16 0)
(-0.000853581918 3.64291929955e-16 0)
(-0.000853581918 2.94902990916e-16 0)
(-0.000853581918 3.67761376907e-16 0)
(-0.000853581918 3.46944695195e-16 0)
(-0.000853581918 3.40005801291e-16 0)
(-0.000853581918 2.98372437868e-16 0)
(-0.000853581918 3.60822483003e-16 0)
(-0.000853581918 1.80411241502e-16 0)
(-0.000853581918 1.80411241502e-16 0)
(-0.000853581918 2.22044604925e-16 0)
(-0.000853581918 4.12864187282e-16 0)
(-0.000853581918 3.53883589099e-16 0)
(-0.000853581918 1.80411241502e-16 0)
(-0.000853581918 1.97758476261e-16 0)
(-0.000853581918 1.66533453694e-16 0)
(-0.000853581918 2.77555756156e-16 0)
(-0.000853581918 3.40005801291e-16 0)
(-0.000853581918 3.3653635434e-16 0)
(-0.000853581918 2.671474153e-16 0)
(0.0024945169952 3.05311331772e-16 0)
(0.0024945169952 2.11636264069e-16 0)
(0.0024945169952 1.66533453694e-16 0)
(0.0024945169952 1.04083408559e-16 0)
(0.0024945169952 3.22658566532e-16 0)
(0.0024945169952 2.42861286637e-16 0)
(0.0024945169952 3.0184188482e-16 0)
(0.0024945169952 3.15719672628e-16 0)
(0.0024945169952 1.94289029309e-16 0)
(0.0024945169952 3.33066907388e-16 0)
(0.0024945169952 2.94902990916e-16 0)
(0.0024945169952 4.47558656802e-16 0)
(0.0024945169952 2.94902990916e-16 0)
(0.0024945169952 2.04697370165e-16 0)
(0.0024945169952 4.85722573274e-17 0)
(0.0024945169952 2.671474153e-16 0)
(0.0024945169952 2.28983498829e-16 0)
(0.0024945169952 2.87964097012e-16 0)
(0.0024945169952 3.12250225676e-16 0)
(0.0024945169952 3.43475248243e-16 0)
(0.0146991231121 1.49186218934e-16 0)
(0.0146991231121 1.73472347598e-16 0)
(0.0146991231121 1.66533453694e-16 0)
(0.0146991231121 9.02056207508e-17 0)
(0.0146991231121 3.53883589099e-16 0)
(0.0146991231121 2.39391839685e-16 0)
(0.0146991231121 2.56739074445e-16 0)
(0.0146991231121 5.20417042793e-17 0)
(0.0146991231121 8.32667268469e-17 0)
(0.0146991231121 3.40005801291e-16 0)
(0.0146991231121 4.96130914129e-16 0)
(0.0146991231121 4.2674197509e-16 0)
(0.0146991231121 2.53269627493e-16 0)
(0.0146991231121 1.80411241502e-16 0)
(0.0146991231121 1.17961196366e-16 0)
(0.0146991231121 1.66533453694e-16 0)
(0.0146991231121 2.22044604925e-16 0)
(0.0146991231121 2.42861286637e-16 0)
(0.0146991231121 2.53269627493e-16 0)
(0.0146991231121 2.53269627493e-16 0)
(0.040936512357 -9.02056207508e-17 0)
(0.040936512357 7.6327832943e-17 0)
(0.040936512357 1.70002900646e-16 0)
(0.040936512357 1.17961196366e-16 0)
(0.040936512357 2.77555756156e-16 0)
(0.040936512357 2.18575157973e-16 0)
(0.040936512357 5.55111512313e-17 0)
(0.040936512357 5.55111512313e-17 0)
(0.040936512357 1.35308431126e-16 0)
(0.040936512357 2.8449465006e-16 0)
(0.040936512357 3.74700270811e-16 0)
(0.040936512357 2.94902990916e-16 0)
(0.040936512357 2.25514051877e-16 0)
(0.040936512357 6.59194920871e-17 0)
(0.040936512357 1.38777878078e-17 0)
(0.040936512357 7.2858385991e-17 0)
(0.040936512357 2.46330733589e-16 0)
(0.040936512357 1.7694179455e-16 0)
(0.040936512357 1.63064006742e-16 0)
(0.040936512357 1.35308431126e-16 0)
(0.0805700672822 -1.52655665886e-16 0)
(0.0805700672822 4.85722573274e-17 0)
(0.0805700672822 1.38777878078e-16 0)
(0.0805700672822 1.87350135405e-16 0)
(0.0805700672822 7.6327832943e-17 0)
(0.0805700672822 1.2490009027e-16 0)
(0.0805700672822 5.55111512313e-17 0)
(0.0805700672822 1.66533453694e-16 0)
(0.0805700672822 1.5959455979e-16 0)
(0.0805700672822 1.80411241502e-16 0)
(0.0805700672822 1.38777878078e-16 0)
(0.0805700672822 1.11022302463e-16 0)
(0.0805700672822 4.85722573274e-17 0)
(0.0805700672822 2.08166817117e-17 0)
(0.0805700672822 7.6327832943e-17 0)
(0.0805700672822 9.71445146547e-17 0)
(0.0805700672822 1.38777878078e-16 0)
(0.0805700672822 6.93889390391e-17 0)
(0.0805700672822 9.71445146547e-17 0)
(0.0805700672822 8.32667268469e-17 0)
)
;

boundaryField
{
    top
    {
        type            fixedValue;
        value           uniform (0.1 0 0);
    }
    bottom
    {
        type            fixedValue;
        value           uniform (0 0 0);
    }
    left
    {
        type            cyclic;
    }
    right
    {
        type            cyclic;
    }
    frontAndBack
    {
        type            empty;
    }
}


// ************************************************************************* //
