/*--------------------------------*- C++ -*----------------------------------*\
| =========                 |                                                 |
| \\      /  F ield         | OpenFOAM: The Open Source CFD Toolbox           |
|  \\    /   O peration     | Version:  2.4.0                                 |
|   \\  /    A nd           | Web:      www.OpenFOAM.org                      |
|    \\/     M anipulation  |                                                 |
\*---------------------------------------------------------------------------*/
FoamFile
{
    version     2.0;
    format      ascii;
    class       volScalarField;
    location    "900";
    object      rho;
}
// * * * * * * * * * * * * * * * * * * * * * * * * * * * * * * * * * * * * * //

dimensions      [1 -3 0 0 0 0 0];

internalField   nonuniform List<scalar> 
2500
(
0.809329456695
0.835331602018
0.851583439429
0.863025011401
0.871040934674
0.877416433573
0.88264106908
0.88713355347
0.891082998161
0.894630656608
0.897864405335
0.900849957052
0.903634878434
0.906255934208
0.908741639166
0.911114705205
0.913393377761
0.915592502955
0.917724243116
0.919798627421
0.921823957248
0.923807120561
0.925753834419
0.927668836248
0.929556035225
0.931418633309
0.933259222213
0.935079861182
0.936882138962
0.938667222348
0.94043589261
0.942188570218
0.943925326263
0.945645877552
0.9473495552
0.949035233575
0.950701177303
0.952344764728
0.953961937801
0.955546310686
0.957087564499
0.958569461861
0.959967754963
0.961251414507
0.962400424939
0.963444065771
0.964667384937
0.966645278279
0.971582800643
0.977523078224
0.82232827854
0.838373379966
0.850880645717
0.861238324008
0.869176653194
0.875787793405
0.881295742578
0.88605044157
0.89022109431
0.893952320025
0.897337757485
0.900449727602
0.903341022006
0.906052647521
0.908616376422
0.911057488054
0.913396252133
0.915649146458
0.917829668204
0.919948961973
0.922016280243
0.924039341015
0.926024603794
0.927977488334
0.929902549302
0.931803618188
0.933683920072
0.935546171381
0.937392663246
0.939225334375
0.941045836531
0.942855595845
0.944655872127
0.946447820462
0.948232554679
0.950011223402
0.951785084437
0.953555620501
0.955324616757
0.95709441394
0.958868012701
0.960650077056
0.962448075983
0.964277328924
0.966174495264
0.968213464501
0.970630948545
0.973712166158
0.978798464827
0.985017482443
0.842938581138
0.85036796272
0.857994806283
0.865457491089
0.871855799693
0.877572048721
0.882544611636
0.886964412665
0.890916086488
0.89449931857
0.897781189679
0.900818846554
0.903655587587
0.906326542522
0.908859622695
0.911277553695
0.913598853159
0.915838782867
0.918009978788
0.920122971846
0.922186575913
0.924208199322
0.926194089686
0.928149532253
0.930079011186
0.931986343279
0.933874790376
0.935747155984
0.937605870313
0.939453067652
0.94129065919
0.943120405089
0.94494398756
0.946763090871
0.948579483657
0.950395120489
0.952212224778
0.954033431836
0.955861798212
0.957701120699
0.959555696472
0.961432007718
0.96333873556
0.965297649352
0.967351870007
0.969623012589
0.972375953021
0.976221931541
0.982319031912
0.992344591307
0.864858187421
0.865006086785
0.867750600288
0.871837878545
0.87623099736
0.8806591745
0.884812270982
0.888687396161
0.892266037804
0.89558530941
0.898674925105
0.901569199327
0.904296850876
0.906883572383
0.909350913017
0.911717238881
0.913997991472
0.916206227584
0.91835297247
0.920447567985
0.922497943219
0.924510848352
0.926492045752
0.928446471457
0.93037837066
0.93229141353
0.934188795262
0.936073324383
0.937947502387
0.939813597922
0.941673717737
0.943529878193
0.94538407737
0.947238376472
0.949094980121
0.950956350983
0.95282529521
0.954705201367
0.956600101003
0.958515542124
0.960458556571
0.96244205045
0.964484378747
0.966632114412
0.968953540888
0.971650001136
0.974965799806
0.979731304549
0.986362417271
0.997995257268
0.886279314601
0.880702758757
0.879130676787
0.879955847031
0.882198514409
0.885111744616
0.888227099561
0.891364616927
0.894411206841
0.897336475341
0.900128294901
0.902793073351
0.90534103059
0.907785237151
0.910138453092
0.91241279683
0.914619172451
0.916767284167
0.918865637996
0.920921658529
0.922941800421
0.924931672999
0.926896154161
0.928839496999
0.930765425626
0.932677222218
0.934577806162
0.936469807501
0.938355636539
0.940237552509
0.942117733302
0.943998351751
0.945881658674
0.947770089159
0.949666378709
0.951573757132
0.953496126349
0.955438548015
0.957407498452
0.959412552911
0.961466455148
0.96359224702
0.965820163788
0.968220441789
0.970871127097
0.974015953764
0.977801911006
0.983110185592
0.98961426544
1.00096781487
0.905087347479
0.895565216735
0.890658265416
0.888754201698
0.889011584809
0.890418553281
0.892434748595
0.894748214066
0.897175002505
0.899624799332
0.902047038253
0.904420239172
0.906735463404
0.908992049273
0.911192898585
0.913342888397
0.91544753123
0.917512450498
0.919543022937
0.921544246051
0.923520676224
0.925476430691
0.927415213714
0.929340359881
0.931254883989
0.933161534934
0.935062851448
0.936961220004
0.938858935623
0.940758268279
0.942661536683
0.944571196785
0.946489944625
0.948420857411
0.950367552532
0.952334462308
0.95432708414
0.956352664812
0.958420507554
0.960544192844
0.962741186673
0.965041644537
0.967481136471
0.970139806162
0.973085076804
0.976560284697
0.980598166827
0.986013376883
0.992008061802
1.00206873315
0.920324509363
0.908614011876
0.901487667077
0.897542895424
0.896133971703
0.896178703604
0.897134315176
0.898611833339
0.900384047867
0.902315074344
0.904323521789
0.906363333454
0.908407929554
0.910443313269
0.912462480216
0.914462775952
0.916443956862
0.918407183057
0.920354340199
0.922287670016
0.924209541185
0.926122328715
0.928028350771
0.929929845795
0.931828973354
0.933727831635
0.935628486457
0.937533010112
0.939443529311
0.941362284242
0.94329169963
0.945234475874
0.947193697922
0.949172990764
0.951176691701
0.953210160446
0.955280037509
0.95739501641
0.959566068607
0.961808908336
0.964142934164
0.96660079139
0.969217394348
0.972071851592
0.975213455912
0.978861488551
0.98296322403
0.98821394947
0.993635991851
1.00223541573
0.931904483662
0.919447047534
0.911112239992
0.905808544165
0.903112521121
0.902013852346
0.902016072123
0.902704604885
0.903834266257
0.905240314202
0.906819810206
0.908507372344
0.910261702523
0.912056990033
0.913877093992
0.915712149432
0.917556241513
0.919406019316
0.921259765241
0.923116823474
0.924977224911
0.926841454573
0.928710304449
0.930584786115
0.932466082019
0.93435552448
0.936254594676
0.938164937974
0.940088393423
0.942027038517
0.943983248923
0.945959781494
0.947959875926
0.949987407275
0.952047050764
0.954144595879
0.956287180608
0.95848408107
0.960746815044
0.96309164243
0.965537921326
0.968117662733
0.970862147009
0.973843246605
0.97709239377
0.98079423363
0.9848456541
0.989811353296
0.994719535996
1.00205633544
0.940303895516
0.928100046243
0.91933999267
0.913259293376
0.909646501508
0.907645724256
0.906836170035
0.906818250132
0.907349230268
0.908251441877
0.909409548261
0.910744767689
0.912204616605
0.913753610862
0.915367736368
0.917030643413
0.918731145078
0.920461577418
0.922216696706
0.92399295348
0.925788001535
0.927600371049
0.929429247986
0.931274327825
0.933135719887
0.935013888288
0.936909619921
0.938824014231
0.940758491353
0.942714818923
0.944695156192
0.946702123682
0.948738891879
0.950809322779
0.9529181194
0.955071127722
0.957275536717
0.959540639436
0.961877818772
0.96430292453
0.966834214405
0.969501303894
0.972330716234
0.975384177123
0.978678218767
0.982361152166
0.986306394497
0.990962300148
0.995445812618
1.00180400043
0.946211485484
0.934836320504
0.926180069323
0.919767752582
0.915561202731
0.912889834505
0.911420879723
0.910796862348
0.910792359401
0.91123015732
0.911990618379
0.912987335703
0.914160267429
0.915466648247
0.916876105712
0.91836677193
0.919922791602
0.92153255836
0.923187521087
0.924881356748
0.926609397692
0.928368232505
0.930155426078
0.931969323317
0.933808911941
0.935673728561
0.937563797294
0.9394795946
0.94142203599
0.943392484218
0.945392776747
0.947425280275
0.949492964356
0.951599527684
0.953749528125
0.955948660156
0.958203914074
0.960524270233
0.962920575022
0.965407675921
0.968002107085
0.970730067002
0.973612939088
0.97670136668
0.980000150635
0.983624717729
0.987441652242
0.991807211561
0.995947502649
1.00157725253
0.950308978852
0.94000748201
0.93176276028
0.925327102852
0.920785060241
0.917645962721
0.915664192122
0.914538684925
0.914070767973
0.914093718985
0.914490194795
0.915171276984
0.916072759658
0.917146980302
0.918358797961
0.919681905904
0.921096499885
0.922587511742
0.924143400203
0.925755275824
0.927416281556
0.929121145175
0.930865855888
0.932647428732
0.934463732983
0.936313368101
0.938195576076
0.940110183234
0.942057566566
0.944038643583
0.946054882752
0.948108341472
0.950201722441
0.952338480057
0.954522925877
0.956760469488
0.959057729507
0.961423131794
0.963866684085
0.966401804338
0.969042882826
0.971812161457
0.974725899358
0.97782405403
0.981102523825
0.984649690192
0.988334216537
0.992444614781
0.996307807615
1.00139903239
0.953160409935
0.943962212812
0.936272602496
0.930005113963
0.925318977362
0.921877925966
0.919514060756
0.917986732749
0.917128685733
0.916790279495
0.916861394607
0.917254779148
0.917905027489
0.918761782411
0.91978667588
0.920950059423
0.92222894589
0.923605344025
0.925065099374
0.926597020818
0.928192247591
0.929843776851
0.931546112978
0.933295003888
0.935087242773
0.936920519174
0.938793308564
0.940704793294
0.942654809694
0.944643819759
0.946672903883
0.948743780486
0.950858842417
0.953021238785
0.955234950793
0.957504986727
0.959837439792
0.962239975351
0.964721517007
0.967293756518
0.969968694702
0.972764474287
0.975692546024
0.97878338335
0.982026359582
0.985489047359
0.989046238992
0.992938781247
0.996576747774
1.0012654841
0.955183447077
0.947000713614
0.939902823138
0.933906575707
0.929208095861
0.925592701072
0.922956671387
0.921116723192
0.919937912917
0.919291191277
0.919076955433
0.919212758472
0.919634419256
0.920290795982
0.921141699442
0.922155182944
0.923305834166
0.924573291905
0.925941190637
0.92739633154
0.928928065643
0.930527818397
0.932188726937
0.933905359223
0.935673496687
0.937489965693
0.93935250784
0.941259682227
0.943210794405
0.945205850091
0.947245529567
0.949331187427
0.951464866874
0.953649353696
0.955888219372
0.958185965707
0.960548029064
0.962981155681
0.965493016149
0.968093422555
0.970791920426
0.973602722576
0.976532996072
0.979605284372
0.982804346943
0.986182481614
0.989621925977
0.993330763151
0.996784178981
1.00116637411
0.95666413435
0.949359860322
0.942828764025
0.937146010743
0.932518809956
0.928822067228
0.926001956278
0.923925528466
0.922488416209
0.92158321045
0.92112265536
0.921031230258
0.921247820301
0.921722055112
0.922413136617
0.923287758632
0.92431879124
0.925484036525
0.926765317154
0.928147726566
0.929619053315
0.931169321769
0.932790431114
0.934475867359
0.936220474056
0.938020269165
0.939872299544
0.94177452675
0.943725739151
0.945725488169
0.947774044242
0.949872376016
0.952022141554
0.954225713163
0.956486187045
0.958807477542
0.961194271136
0.963652298563
0.966187895749
0.968808973097
0.971522703341
0.974339735526
0.977263575076
0.980310413306
0.983461866801
0.986759383417
0.990092583094
0.99364718736
0.996948277284
1.00109212903
0.957787628459
0.951216193807
0.945196667001
0.939831353635
0.935323035712
0.931609072222
0.928672536862
0.926422198665
0.92478096405
0.923662355709
0.922992095861
0.922702802324
0.922737697516
0.923048362758
0.923594376884
0.924341874897
0.925262637396
0.926333118394
0.927533704956
0.928848072264
0.93026266894
0.931766289667
0.933349727739
0.935005488817
0.9367275562
0.93851119785
0.940352808424
0.942249780968
0.944200403738
0.946203779912
0.948259765626
0.950368928805
0.952532517414
0.954752455472
0.957031320373
0.959372389763
0.961779550929
0.964257483607
0.966811184238
0.969446738175
0.972169126898
0.974985894681
0.977897515816
0.980915249002
0.984018659593
0.987241661318
0.990480589604
0.993905818022
0.997080478774
1.00103551561
0.958669146612
0.952696493917
0.947122206275
0.942056283642
0.93768906753
0.933999345692
0.93099631512
0.928621847929
0.926822116428
0.925529759981
0.92468320727
0.924223674831
0.924099474036
0.924264952353
0.924680813506
0.925313278953
0.926133570548
0.927117222413
0.928243526031
0.929495006894
0.930856984976
0.932317191398
0.93386544401
0.935493370333
0.937194173038
0.9389624314
0.940793934051
0.942685538929
0.944635056537
0.946641154392
0.948703278108
0.950821590708
0.952996918875
0.955230721634
0.957525037668
0.959882489669
0.962306155793
0.964799679012
0.967366769261
0.970011827092
0.972737878509
0.975549841917
0.97844574537
0.981433104329
0.984490218566
0.987645849795
0.990802182011
0.994118895698
0.997188265582
1.00099151249
0.959378738585
0.953889824721
0.94869392672
0.943898155843
0.939677266663
0.936036245444
0.933002040253
0.930541901311
0.92862115942
0.927189178126
0.926196203437
0.925591932075
0.925330073204
0.925368221496
0.925668721853
0.926198367739
0.926928247194
0.927833333378
0.928892118248
0.930086218986
0.931400022212
0.932820352933
0.934336180132
0.935938354684
0.937619379642
0.939373209773
0.941195077893
0.94308134531
0.945029373304
0.947037413783
0.949104514691
0.95123044114
0.953415601161
0.955660989338
0.957968107192
0.960338930768
0.962775751128
0.965281225923
0.967857871295
0.970508578977
0.973234676906
0.976038913348
0.978917383267
0.981874811105
0.984888779779
0.987984562972
0.991069315356
0.994295112108
0.997276726422
1.00095675339
0.959958741534
0.954858131256
0.949978328052
0.945418895057
0.941338721443
0.937758553478
0.934716909593
0.932199957394
0.930188353426
0.928645600492
0.927532499382
0.926806695252
0.926427248067
0.92635519329
0.926554820184
0.926993825644
0.927643481991
0.928478487678
0.929476783258
0.93061928821
0.931889632187
0.933273880654
0.934760274871
0.936338988769
0.938001907503
0.939742427966
0.941555281151
0.943436375117
0.945382656445
0.947391988676
0.949463043569
0.951595205701
0.953788479673
0.95604341145
0.958360985318
0.960742560763
0.963189688676
0.965704119357
0.968287293194
0.970940785046
0.973664482321
0.976459373911
0.979320054926
0.982249198015
0.985224039267
0.988267505472
0.991290909217
0.994440795659
0.997349442311
1.00092900002
0.960435063783
0.955644469637
0.951024861742
0.946667104117
0.942715472891
0.939199666133
0.936165405389
0.933612629993
0.931533954464
0.929904493885
0.928694157531
0.927867736674
0.927389325245
0.927223357089
0.927336182178
0.927696590699
0.92827625504
0.929049813226
0.929994853541
0.931091775955
0.932323608949
0.933675792664
0.935135955093
0.936693690133
0.93834034663
0.940068832008
0.941873432585
0.94374965087
0.945694058655
0.947704164874
0.949778294381
0.951915477935
0.954115343075
0.956378016194
0.958703999735
0.96109408421
0.963549146105
0.966070124387
0.968657516194
0.971311774193
0.974031589937
0.976816550631
0.979660107207
0.982563442316
0.985503683055
0.98850218316
0.991473686997
0.994560640683
0.997409001531
1.00090675265
0.960824023199
0.956278936303
0.951870128369
0.947680411589
0.943841416364
0.940387563189
0.937368817601
0.934794935115
0.932667647104
0.930971352604
0.929683573071
0.928775285718
0.928215108661
0.927970646582
0.928010269528
0.928303926181
0.928823811073
0.929544648069
0.930443824682
0.931501367243
0.932699837744
0.934024172099
0.935461491998
0.93700090463
0.938633303274
0.940351175357
0.94214842219
0.944020192102
0.945962726731
0.947973219951
0.950049685947
0.952190836635
0.954395958599
0.956664798998
0.958997426593
0.961394124245
0.963855173608
0.9663808098
0.968970725846
0.971624441452
0.974339677358
0.977114923901
0.979942774002
0.982823341295
0.985733785593
0.98869440959
0.991622747515
0.994658169835
0.997457308951
1.00088899039
0.961136291234
0.956782731537
0.952541119661
0.948487601862
0.944743386893
0.941345128472
0.938345120326
0.935759968425
0.933598187303
0.931851390096
0.930503248102
0.929529888143
0.928903813233
0.92859543231
0.928574968094
0.928813487491
0.929283746897
0.929960640772
0.930821463181
0.931845982024
0.933016407
0.934317277832
0.935735309124
0.937259210691
0.938879499635
0.940588313405
0.942379229928
0.944247097806
0.946187877242
0.94819849165
0.950276686853
0.952420898073
0.954630115353
0.956903756356
0.959241514595
0.961643237078
0.964108699892
0.966637548377
0.969228811938
0.971881256756
0.974591835879
0.977358199649
0.980172310267
0.983033525469
0.985919110765
0.988848670161
0.991741958569
0.994736036297
0.997495778644
1.00087500655
0.961379087496
0.957170849198
0.953057595981
0.949110363564
0.945442186841
0.942090587893
0.939109016486
0.936518737465
0.934333158057
0.93254929923
0.931155597434
0.93013227026
0.929454985377
0.92909648944
0.929028592107
0.92922335252
0.92965405938
0.930295809345
0.931125871353
0.932123842479
0.933271675556
0.934553609943
0.935956044947
0.937467378328
0.939077828824
0.940779254111
0.942564971839
0.944429587868
0.946368833115
0.948379409418
0.950458841684
0.952605336593
0.954817638919
0.957094894147
0.95943648696
0.961841908037
0.964310523621
0.966841506574
0.9694333614
0.972084268856
0.974790596266
0.977549370204
0.980352101882
0.98319762613
0.986063338898
0.98896838523
0.991834230384
0.994796226412
0.997525457914
1.00086430674
0.961557374966
0.957453813164
0.953433767457
0.949564637255
0.94595345541
0.942637945543
0.939672051627
0.937080079158
0.934878795745
0.933069058538
0.931642775651
0.930583204429
0.929868410474
0.929472943054
0.929369860085
0.929532020537
0.929933160425
0.930548566734
0.931355519057
0.932333507883
0.933464308474
0.93473194501
0.936122586688
0.93762440086
0.939227384147
0.940923184609
0.942704923824
0.94456702389
0.946505041343
0.948515508793
0.950595781823
0.952743891522
0.954958394084
0.95723822597
0.959582535428
0.961990541776
0.964461301249
0.96699363263
0.969585651027
0.972235109003
0.974937951701
0.97769076574
0.980484754491
0.983318405296
0.986169236267
0.989056099741
0.991901706182
0.994840197715
0.997547109143
1.00085654635
0.961674505731
0.957638774792
0.953679445016
0.949861602752
0.946288350479
0.942997360869
0.940042743712
0.937450625475
0.935239868323
0.933413780135
0.93196653086
0.930883386912
0.930144021047
0.929724205672
0.929597857346
0.929738394231
0.930119873328
0.930717727019
0.93150925623
0.932473890853
0.933593295131
0.934851354744
0.936234088627
0.93772951234
0.939327475271
0.94101948587
0.942798534613
0.944658920281
0.946596082012
0.94860643814
0.950687229635
0.952836368543
0.95505228315
0.957333768288
0.959679812373
0.962089451986
0.964561535621
0.967094646373
0.969686642065
0.972334995204
0.975035377793
0.977784096284
0.980572162964
0.983397853722
0.986238778863
0.989113617863
0.991945893842
0.994868972962
0.997561264223
1.0008514923
0.961732568348
0.95773018634
0.953800795379
0.950008361256
0.946454044274
0.943175441527
0.940226699356
0.937634794917
0.935419594338
0.933585598513
0.932128091785
0.931033339104
0.930281818745
0.929849920677
0.929711998475
0.929841757575
0.930213422276
0.930802503224
0.93158631632
0.93254426433
0.933657958235
0.934911215981
0.936289982339
0.937782197532
0.939377637596
0.941067741227
0.942845433233
0.9447049505
0.94664167312
0.948651961857
0.950732999852
0.952882639036
0.955099243093
0.957381535364
0.959728423701
0.962138852798
0.964611566991
0.96714503169
0.969736976817
0.972384736521
0.975083848753
0.977830483792
0.980615562557
0.983437261059
0.98627323876
0.989142094967
0.99196775396
0.994883202523
0.997568260067
1.00084899995
0.961732568348
0.95773018634
0.953800795379
0.950008361256
0.946454044274
0.943175441527
0.940226699356
0.937634794917
0.935419594338
0.933585598513
0.932128091785
0.931033339104
0.930281818745
0.929849920677
0.929711998475
0.929841757575
0.930213422276
0.930802503224
0.93158631632
0.93254426433
0.933657958235
0.934911215981
0.936289982339
0.937782197532
0.939377637596
0.941067741227
0.942845433233
0.9447049505
0.94664167312
0.948651961857
0.950732999852
0.952882639036
0.955099243093
0.957381535364
0.959728423701
0.962138852798
0.964611566991
0.96714503169
0.969736976817
0.972384736521
0.975083848753
0.977830483792
0.980615562557
0.983437261059
0.98627323876
0.989142094967
0.99196775396
0.994883202523
0.997568260067
1.00084899995
0.961674505731
0.957638774792
0.953679445016
0.949861602752
0.946288350479
0.942997360869
0.940042743712
0.937450625475
0.935239868323
0.933413780135
0.93196653086
0.930883386912
0.930144021047
0.929724205672
0.929597857346
0.929738394231
0.930119873328
0.930717727019
0.93150925623
0.932473890853
0.933593295131
0.934851354744
0.936234088627
0.93772951234
0.939327475271
0.94101948587
0.942798534613
0.944658920281
0.946596082012
0.94860643814
0.950687229635
0.952836368543
0.95505228315
0.957333768288
0.959679812373
0.962089451986
0.964561535621
0.967094646373
0.969686642065
0.972334995204
0.975035377793
0.977784096284
0.980572162964
0.983397853722
0.986238778863
0.989113617863
0.991945893842
0.994868972962
0.997561264223
1.0008514923
0.961557374966
0.957453813164
0.953433767457
0.949564637255
0.94595345541
0.942637945543
0.939672051627
0.937080079158
0.934878795745
0.933069058538
0.931642775651
0.930583204429
0.929868410474
0.929472943054
0.929369860085
0.929532020537
0.929933160425
0.930548566734
0.931355519057
0.932333507883
0.933464308474
0.93473194501
0.936122586688
0.93762440086
0.939227384147
0.940923184609
0.942704923824
0.94456702389
0.946505041343
0.948515508793
0.950595781823
0.952743891522
0.954958394084
0.95723822597
0.959582535428
0.961990541776
0.964461301249
0.96699363263
0.969585651027
0.972235109003
0.974937951701
0.97769076574
0.980484754491
0.983318405296
0.986169236267
0.989056099741
0.991901706182
0.994840197715
0.997547109143
1.00085654635
0.961379087496
0.957170849198
0.953057595981
0.949110363564
0.945442186841
0.942090587893
0.939109016486
0.936518737465
0.934333158057
0.93254929923
0.931155597434
0.93013227026
0.929454985377
0.92909648944
0.929028592107
0.92922335252
0.92965405938
0.930295809345
0.931125871353
0.932123842479
0.933271675556
0.934553609943
0.935956044947
0.937467378328
0.939077828824
0.940779254111
0.942564971839
0.944429587868
0.946368833115
0.948379409418
0.950458841684
0.952605336593
0.954817638919
0.957094894147
0.95943648696
0.961841908037
0.964310523621
0.966841506574
0.9694333614
0.972084268856
0.974790596266
0.977549370204
0.980352101882
0.98319762613
0.986063338898
0.98896838523
0.991834230384
0.994796226412
0.997525457914
1.00086430674
0.961136291234
0.956782731537
0.952541119661
0.948487601862
0.944743386893
0.941345128472
0.938345120326
0.935759968425
0.933598187303
0.931851390096
0.930503248102
0.929529888143
0.928903813233
0.92859543231
0.928574968094
0.928813487491
0.929283746897
0.929960640772
0.930821463181
0.931845982024
0.933016407
0.934317277832
0.935735309124
0.937259210691
0.938879499635
0.940588313405
0.942379229928
0.944247097806
0.946187877242
0.94819849165
0.950276686853
0.952420898073
0.954630115353
0.956903756356
0.959241514595
0.961643237078
0.964108699892
0.966637548377
0.969228811938
0.971881256756
0.974591835879
0.977358199649
0.980172310267
0.983033525469
0.985919110765
0.988848670161
0.991741958569
0.994736036297
0.997495778644
1.00087500655
0.960824023199
0.956278936303
0.951870128369
0.947680411589
0.943841416364
0.940387563189
0.937368817601
0.934794935115
0.932667647104
0.930971352604
0.929683573071
0.928775285718
0.928215108661
0.927970646582
0.928010269528
0.928303926181
0.928823811073
0.929544648069
0.930443824682
0.931501367243
0.932699837744
0.934024172099
0.935461491998
0.93700090463
0.938633303274
0.940351175357
0.94214842219
0.944020192102
0.945962726731
0.947973219951
0.950049685946
0.952190836635
0.954395958599
0.956664798998
0.958997426593
0.961394124245
0.963855173608
0.9663808098
0.968970725846
0.971624441452
0.974339677358
0.977114923901
0.979942774002
0.982823341295
0.985733785593
0.98869440959
0.991622747515
0.994658169835
0.997457308951
1.00088899039
0.960435063783
0.955644469637
0.951024861742
0.946667104117
0.942715472891
0.939199666133
0.936165405389
0.933612629993
0.931533954464
0.929904493885
0.928694157531
0.927867736674
0.927389325245
0.927223357089
0.927336182178
0.927696590699
0.92827625504
0.929049813226
0.929994853541
0.931091775955
0.932323608949
0.933675792664
0.935135955093
0.936693690133
0.93834034663
0.940068832008
0.941873432585
0.94374965087
0.945694058655
0.947704164874
0.949778294381
0.951915477935
0.954115343075
0.956378016194
0.958703999735
0.96109408421
0.963549146105
0.966070124387
0.968657516194
0.971311774193
0.974031589937
0.976816550631
0.979660107207
0.982563442316
0.985503683055
0.98850218316
0.991473686997
0.994560640683
0.997409001531
1.00090675265
0.959958741534
0.954858131256
0.949978328052
0.945418895057
0.941338721443
0.937758553478
0.934716909593
0.932199957394
0.930188353426
0.928645600492
0.927532499382
0.926806695252
0.926427248067
0.92635519329
0.926554820184
0.926993825644
0.927643481991
0.928478487678
0.929476783258
0.93061928821
0.931889632187
0.933273880654
0.934760274871
0.936338988769
0.938001907503
0.939742427966
0.941555281151
0.943436375117
0.945382656445
0.947391988676
0.949463043569
0.951595205701
0.953788479673
0.95604341145
0.958360985318
0.960742560763
0.963189688676
0.965704119357
0.968287293194
0.970940785046
0.973664482321
0.976459373911
0.979320054926
0.982249198015
0.985224039267
0.988267505472
0.991290909217
0.994440795659
0.997349442311
1.00092900002
0.959378738585
0.953889824721
0.94869392672
0.943898155843
0.939677266663
0.936036245444
0.933002040253
0.930541901311
0.92862115942
0.927189178126
0.926196203437
0.925591932075
0.925330073204
0.925368221496
0.925668721853
0.926198367739
0.926928247194
0.927833333378
0.928892118248
0.930086218986
0.931400022212
0.932820352933
0.934336180132
0.935938354684
0.937619379642
0.939373209773
0.941195077893
0.94308134531
0.945029373304
0.947037413783
0.949104514691
0.95123044114
0.953415601161
0.955660989338
0.957968107192
0.960338930768
0.962775751128
0.965281225923
0.967857871295
0.970508578977
0.973234676906
0.976038913348
0.978917383267
0.981874811105
0.984888779779
0.987984562972
0.991069315356
0.994295112108
0.997276726422
1.00095675339
0.958669146612
0.952696493917
0.947122206275
0.942056283642
0.93768906753
0.933999345692
0.93099631512
0.928621847929
0.926822116428
0.925529759981
0.92468320727
0.924223674831
0.924099474036
0.924264952353
0.924680813506
0.925313278953
0.926133570548
0.927117222413
0.928243526031
0.929495006894
0.930856984976
0.932317191398
0.93386544401
0.935493370333
0.937194173038
0.9389624314
0.940793934051
0.942685538929
0.944635056537
0.946641154392
0.948703278108
0.950821590708
0.952996918875
0.955230721634
0.957525037668
0.959882489669
0.962306155793
0.964799679012
0.967366769261
0.970011827092
0.972737878509
0.975549841917
0.97844574537
0.981433104329
0.984490218566
0.987645849795
0.990802182011
0.994118895698
0.997188265582
1.00099151249
0.957787628459
0.951216193807
0.945196667001
0.939831353635
0.935323035712
0.931609072222
0.928672536862
0.926422198665
0.92478096405
0.923662355709
0.922992095861
0.922702802324
0.922737697516
0.923048362758
0.923594376884
0.924341874897
0.925262637396
0.926333118394
0.927533704956
0.928848072264
0.93026266894
0.931766289667
0.933349727739
0.935005488817
0.9367275562
0.93851119785
0.940352808424
0.942249780968
0.944200403738
0.946203779912
0.948259765626
0.950368928805
0.952532517414
0.954752455472
0.957031320373
0.959372389763
0.961779550929
0.964257483607
0.966811184238
0.969446738175
0.972169126898
0.974985894681
0.977897515816
0.980915249002
0.984018659593
0.987241661318
0.990480589604
0.993905818022
0.997080478774
1.00103551561
0.95666413435
0.949359860322
0.942828764025
0.937146010743
0.932518809956
0.928822067228
0.926001956278
0.923925528466
0.922488416209
0.92158321045
0.92112265536
0.921031230258
0.921247820301
0.921722055112
0.922413136617
0.923287758632
0.92431879124
0.925484036525
0.926765317154
0.928147726566
0.929619053315
0.931169321769
0.932790431114
0.934475867359
0.936220474056
0.938020269165
0.939872299544
0.94177452675
0.943725739151
0.945725488169
0.947774044242
0.949872376016
0.952022141554
0.954225713163
0.956486187045
0.958807477542
0.961194271136
0.963652298563
0.966187895749
0.968808973097
0.971522703341
0.974339735526
0.977263575076
0.980310413306
0.983461866801
0.986759383417
0.990092583094
0.99364718736
0.996948277284
1.00109212903
0.955183447077
0.947000713614
0.939902823138
0.933906575707
0.929208095861
0.925592701072
0.922956671387
0.921116723192
0.919937912917
0.919291191277
0.919076955433
0.919212758472
0.919634419256
0.920290795982
0.921141699442
0.922155182944
0.923305834166
0.924573291905
0.925941190637
0.92739633154
0.928928065643
0.930527818397
0.932188726937
0.933905359223
0.935673496687
0.937489965693
0.93935250784
0.941259682227
0.943210794405
0.945205850091
0.947245529567
0.949331187427
0.951464866874
0.953649353696
0.955888219372
0.958185965707
0.960548029064
0.962981155681
0.965493016149
0.968093422555
0.970791920426
0.973602722576
0.976532996072
0.979605284372
0.982804346943
0.986182481614
0.989621925977
0.993330763151
0.996784178981
1.00116637411
0.953160409935
0.943962212812
0.936272602496
0.930005113963
0.925318977362
0.921877925966
0.919514060756
0.917986732749
0.917128685733
0.916790279495
0.916861394607
0.917254779148
0.917905027489
0.918761782411
0.91978667588
0.920950059423
0.92222894589
0.923605344025
0.925065099374
0.926597020818
0.928192247591
0.929843776851
0.931546112978
0.933295003888
0.935087242773
0.936920519174
0.938793308564
0.940704793294
0.942654809694
0.944643819759
0.946672903883
0.948743780486
0.950858842417
0.953021238785
0.955234950793
0.957504986727
0.959837439792
0.962239975351
0.964721517007
0.967293756518
0.969968694702
0.972764474287
0.975692546024
0.97878338335
0.982026359582
0.985489047359
0.989046238992
0.992938781247
0.996576747774
1.0012654841
0.950308978852
0.94000748201
0.93176276028
0.925327102852
0.920785060241
0.917645962721
0.915664192122
0.914538684925
0.914070767973