/*--------------------------------*- C++ -*----------------------------------*\
| =========                 |                                                 |
| \\      /  F ield         | OpenFOAM: The Open Source CFD Toolbox           |
|  \\    /   O peration     | Version:  2.4.0                                 |
|   \\  /    A nd           | Web:      www.OpenFOAM.org                      |
|    \\/     M anipulation  |                                                 |
\*---------------------------------------------------------------------------*/
FoamFile
{
    version     2.0;
    format      ascii;
    class       volScalarField;
    location    "900";
    object      rho;
}
// * * * * * * * * * * * * * * * * * * * * * * * * * * * * * * * * * * * * * //

dimensions      [1 -3 0 0 0 0 0];

internalField   nonuniform List<scalar> 
2500
(
1.000017628
1.00001819697
1.00001822556
1.00001814206
1.00001794056
1.00001767103
1.00001735607
1.00001701332
1.00001665254
1.00001627969
1.00001589835
1.00001551083
1.00001511867
1.00001472298
1.00001432458
1.00001392408
1.00001352194
1.00001311852
1.00001271411
1.00001230894
1.00001190316
1.00001149693
1.00001109035
1.00001068352
1.0000102765
1.00000986938
1.00000946221
1.00000905506
1.000008648
1.0000082411
1.00000783446
1.0000074282
1.00000702248
1.00000661747
1.00000621345
1.00000581072
1.00000540972
1.00000501102
1.00000461536
1.0000042238
1.00000383783
1.00000345966
1.00000309282
1.00000274327
1.00000242122
1.00000214576
1.00000194479
1.00000187913
1.00000197693
1.00000266772
1.00001810128
1.00001834896
1.00001821056
1.00001803448
1.0000177936
1.0000175169
1.00001720997
1.00001688107
1.00001653536
1.00001617692
1.00001580866
1.00001543279
1.00001505094
1.00001466435
1.000014274
1.00001388064
1.00001348486
1.00001308714
1.00001268787
1.00001228736
1.00001188586
1.00001148361
1.00001108078
1.00001067754
1.00001027403
1.00000987039
1.00000946676
1.00000906327
1.00000866006
1.0000082573
1.00000785517
1.00000745388
1.00000705369
1.00000665492
1.00000625795
1.00000586326
1.00000547149
1.0000050834
1.00000470003
1.00000432271
1.00000395324
1.00000359402
1.00000324838
1.00000292098
1.00000261803
1.0000023493
1.00000212364
1.00000197248
1.00000188292
1.00000217592
1.00001853284
1.00001852906
1.00001830904
1.00001808234
1.00001781309
1.00001751984
1.000017204
1.00001687064
1.00001652305
1.00001616415
1.00001579623
1.0000154211
1.00001504019
1.00001465463
1.00001426532
1.00001387298
1.00001347817
1.00001308137
1.00001268297
1.00001228328
1.00001188257
1.00001148106
1.00001107894
1.0000106764
1.00001027358
1.00000987063
1.00000946769
1.00000906492
1.00000866246
1.00000826049
1.0000078592
1.00000745881
1.00000705959
1.00000666186
1.00000626602
1.00000587255
1.00000548205
1.00000509529
1.00000471323
1.0000043371
1.00000396849
1.00000360943
1.00000326255
1.0000029313
1.00000261972
1.00000233384
1.00000207717
1.00000186865
1.00000168189
1.00000169989
1.00001885671
1.00001869317
1.00001841268
1.00001814078
1.00001784365
1.00001753184
1.0000172045
1.0000168643
1.00001651294
1.00001615224
1.00001578373
1.00001540875
1.00001502844
1.00001464372
1.00001425537
1.00001386404
1.00001347027
1.00001307449
1.00001267708
1.00001227835
1.00001187856
1.00001147794
1.0000110767
1.00001067501
1.00001027303
1.00000987093
1.00000946886
1.00000906697
1.00000866542
1.00000826441
1.00000786412
1.00000746479
1.00000706669
1.00000667014
1.00000627553
1.00000588332
1.00000549409
1.00000510853
1.00000472748
1.000004352
1.00000398336
1.00000362311
1.00000327305
1.00000293537
1.00000261228
1.00000230693
1.0000020197
1.0000017605
1.00000150186
1.00000134542
1.0000191112
1.00001884419
1.00001852199
1.00001821407
1.00001789307
1.00001756367
1.00001722397
1.00001687511
1.00001651785
1.00001615321
1.00001578217
1.00001540563
1.00001502444
1.0000146393
1.00001425087
1.00001385966
1.00001346616
1.00001307074
1.00001267376
1.00001227549
1.00001187619
1.00001147608
1.00001107535
1.00001067417
1.00001027272
1.00000987115
1.00000946961
1.00000906826
1.00000866726
1.00000826679
1.00000786705
1.00000746827
1.00000707069
1.00000667462
1.00000628041
1.00000588848
1.00000549934
1.00000511355
1.00000473183
1.00000435499
1.00000398396
1.00000361983
1.00000326375
1.00000291698
1.00000258059
1.00000225597
1.00000194196
1.00000164235
1.00000133412
1.00000106706
1.00001931185
1.00001897665
1.00001862508
1.00001828846
1.00001794706
1.00001760174
1.0000172502
1.00001689255
1.00001652887
1.00001615961
1.00001578531
1.00001540652
1.00001502382
1.00001463772
1.00001424872
1.00001385723
1.00001346365
1.00001306831
1.00001267149
1.00001227348
1.00001187448
1.0000114747
1.00001107434
1.00001067355
1.0000102725
1.00000987133
1.00000947019
1.00000906924
1.00000866864
1.00000826856
1.00000786918
1.00000747071
1.00000707338
1.00000667748
1.0000062833
1.00000589121
1.00000550162
1.000005115
1.00000473189
1.00000435288
1.00000397862
1.00000360978
1.00000324701
1.00000289091
1.00000254174
1.00000219971
1.00000186295
1.00000153138
1.00000118824
1.0000008496
1.00001947406
1.00001909271
1.00001872063
1.0000183618
1.0000180035
1.00001764427
1.00001728186
1.00001691569
1.00001654546
1.00001617122
1.00001579316
1.00001541159
1.00001502685
1.00001463929
1.00001424926
1.00001385708
1.00001346306
1.00001306746
1.00001267054
1.00001227252
1.0000118736
1.00001147397
1.00001107378
1.0000106732
1.00001027237
1.00000987143
1.00000947053
1.00000906981
1.00000866941
1.0000082695
1.00000787024
1.00000747182
1.00000707445
1.00000667837
1.00000628382
1.00000589112
1.00000550057
1.00000511254
1.00000472742
1.00000434561
1.0000039675
1.00000359346
1.00000322377
1.00000285856
1.0000024976
1.00000214036
1.00000178481
1.00000142868
1.00000106119
1.00000067542
1.00001960771
1.00001919409
1.00001880747
1.00001843154
1.00001805942
1.00001768828
1.00001731614
1.00001694207
1.00001656552
1.00001618627
1.00001580429
1.00001541968
1.00001503259
1.00001464326
1.0000142519
1.00001385874
1.00001346401
1.00001306792
1.00001267067
1.00001227245
1.00001187343
1.00001147376
1.00001107359
1.00001067307
1.00001027232
1.00000987148
1.00000947066
1.00000907001
1.00000866966
1.00000826974
1.00000787041
1.00000747183
1.00000707418
1.00000667765
1.00000628245
1.0000058888
1.00000549695
1.00000510716
1.00000471968
1.00000433474
1.00000395256
1.00000357327
1.00000319688
1.00000282321
1.00000245176
1.00000208155
1.00000171075
1.0000013359
1.00000095126
1.00000053357
1.00001971983
1.00001928291
1.00001888586
1.00001849677
1.00001811346
1.00001773224
1.00001735158
1.00001697034
1.00001658787
1.00001620377
1.00001581787
1.0000154301
1.00001504052
1.0000146492
1.0000142563
1.00001386194
1.0000134663
1.00001306952
1.00001267176
1.00001227316
1.00001187388
1.00001147403
1.00001107374
1.00001067314
1.00001027234
1.00000987145
1.00000947059
1.00000906987
1.00000866941
1.00000826933
1.00000786976
1.00000747084
1.0000070727
1.00000667551
1.00000627942
1.00000588459
1.0000054912
1.00000509941
1.00000470937
1.00000432119
1.00000393492
1.00000355054
1.00000316788
1.00000278656
1.00000240595
1.00000202487
1.00000164183
1.00000125276
1.00000085594
1.00000041607
1.00001981525
1.00001936095
1.0000189563
1.00001855702
1.00001816467
1.00001777503
1.00001738698
1.00001699934
1.00001661143
1.00001622277
1.00001583307
1.00001544218
1.00001505003
1.00001465665
1.00001426207
1.00001386638
1.00001346968
1.00001307206
1.00001267365
1.00001227454
1.00001187486
1.0000114747
1.00001107417
1.00001067337
1.0000102724
1.00000987135
1.00000947033
1.00000906942
1.00000866873
1.00000826836
1.00000786841
1.000007469
1.00000707022
1.0000066722
1.00000627506
1.0000058789
1.00000548382
1.00000508993
1.00000469726
1.00000430584
1.00000391563
1.00000352646
1.00000313807
1.00000274998
1.0000023615
1.00000197142
1.0000015786
1.00000117871
1.00000077313
1.0000003174
1.00001989738
1.00001942975
1.00001901945
1.00001861222
1.00001821258
1.0000178159
1.00001742151
1.00001702824
1.00001663542
1.00001624253
1.00001584924
1.00001545533
1.00001506066
1.00001466518
1.00001426887
1.00001387177
1.00001347391
1.00001307535
1.00001267618
1.00001227646
1.00001187627
1.0000114757
1.00001107483
1.00001067374
1.0000102725
1.0000098712
1.00000946991
1.00000906871
1.00000866768
1.00000826691
1.00000786647
1.00000746645
1.00000706693
1.00000666797
1.00000626967
1.00000587208
1.00000547526
1.00000507922
1.00000468396
1.00000428943
1.00000389549
1.00000350192
1.0000031084
1.00000271439
1.00000231922
1.00000192172
1.00000152114
1.00000111296
1.000000701
1.00000023361
1.00001996867
1.00001949053
1.00001907599
1.00001866249
1.00001825694
1.00001785441
1.00001745461
1.00001705641
1.0000166592
1.00001626247
1.00001586585
1.00001546907
1.00001507196
1.00001467442
1.00001427638
1.00001387783
1.00001347876
1.00001307921
1.0000126792
1.00001227879
1.00001187803
1.00001147697
1.00001107568
1.00001067421
1.00001027262
1.00000987098
1.00000946935
1.00000906778
1.00000866634
1.00000826508
1.00000786407
1.00000746336
1.00000706301
1.00000666306
1.00000626354
1.00000586449
1.0000054659
1.00000506777
1.00000467001
1.00000427253
1.00000387515
1.00000347761
1.00000307954
1.00000268042
1.00000227962
1.00000187603
1.00000146926
1.00000105469
1.00000063801
1.00000016186
1.00002003092
1.00001954431
1.00001912653
1.00001870804
1.00001829768
1.00001789028
1.00001748587
1.0000170834
1.00001668231
1.00001628211
1.00001588243
1.00001548298
1.00001508357
1.00001468404
1.00001428431
1.00001388432
1.00001348403
1.00001308345
1.00001268257
1.00001228142
1.00001188003
1.00001147843
1.00001107666
1.00001067475
1.00001027276
1.00000987072
1.00000946868
1.00000906668
1.00000866476
1.00000826296
1.00000786132
1.00000745988
1.00000705865
1.00000665767
1.00000625692
1.00000585642
1.00000545612
1.00000505596
1.00000465585
1.00000425565
1.00000385514
1.00000345405
1.000003052
1.00000264848
1.00000224296
1.00000183439
1.00000142268
1.00000100315
1.00000058294
1.00000010005
1.00002008544
1.0000195919
1.0000191716
1.00001874909
1.00001833481
1.00001792336
1.00001751505
1.00001710888
1.00001670439
1.00001630109
1.00001589864
1.00001549674
1.00001509517
1.00001469376
1.00001429241
1.00001389101
1.00001348953
1.00001308791
1.00001268615
1.00001228424
1.00001188219
1.00001148001
1.00001107772
1.00001067534
1.0000102729
1.00000987042
1.00000946793
1.00000906546
1.00000866302
1.00000826064
1.00000785835
1.00000745614
1.00000705403
1.00000665201
1.00000625005
1.00000584814
1.00000544619
1.00000504414
1.00000464185
1.00000423916
1.00000383584
1.00000343161
1.00000302611
1.00000261885
1.00000220938
1.00000179674
1.00000138108
1.00000095766
1.00000053477
1.0000000466
1.00002013323
1.00001963395
1.00001921167
1.00001878591
1.00001836841
1.00001795358
1.00001754195
1.00001713261
1.00001672515
1.00001631911
1.00001591417
1.00001551004
1.00001510649
1.00001470334
1.00001430045
1.00001389773
1.00001349508
1.00001309246
1.00001268982
1.00001228715
1.00001188443
1.00001148166
1.00001107883
1.00001067596
1.00001027304
1.0000098701
1.00000946713
1.00000906416
1.00000866119
1.00000825822
1.00000785525
1.00000745228
1.00000704929
1.00000664626
1.00000624314
1.00000583988
1.0000054364
1.00000503259
1.00000462831
1.00000422337
1.00000381756
1.00000341058
1.0000030021
1.00000259168
1.00000217891
1.00000176294
1.00000134411
1.00000091762
1.00000049269
1.00000000032
1.00002017506
1.00001967097
1.00001924713
1.0000188187
1.00001839856
1.00001798091
1.00001756649
1.00001715443
1.00001674439
1.00001633595
1.00001592881
1.00001552267
1.00001511732
1.00001471257
1.00001430826
1.00001390429
1.00001350054
1.00001309696
1.00001269348
1.00001229006
1.00001188668
1.00001148332
1.00001107995
1.00001067657
1.00001027317
1.00000986975
1.00000946631
1.00000906283
1.00000865932
1.00000825575
1.00000785213
1.00000744841
1.00000704458
1.00000664058
1.00000623637
1.00000583185
1.00000542695
1.00000502154
1.00000461546
1.00000420853
1.00000380052
1.00000339116
1.00000298014
1.00000256704
1.00000215154
1.00000173285
1.00000131147
1.00000088254
1.00000045603
0.999999960282
1.00002021151
1.00001970338
1.00001927829
1.00001884769
1.00001842536
1.00001800537
1.0000175886
1.00001717423
1.00001676197
1.00001635144
1.00001594236
1.00001553445
1.00001512748
1.00001472128
1.00001431568
1.00001391055
1.00001350578
1.00001310129
1.00001269702
1.00001229289
1.00001188888
1.00001148494
1.00001108104
1.00001067717
1.0000102733
1.00000986941
1.00000946549
1.00000906152
1.00000865747
1.00000825334
1.00000784907
1.00000744465
1.00000704002
1.00000663512
1.00000622988
1.00000582423
1.00000541803
1.00000501118
1.0000046035
1.00000419482
1.0000037849
1.0000033735
1.00000296031
1.00000254497
1.00000212721
1.0000017063
1.00000128286
1.00000085198
1.00000042425
0.999999925764
1.00002024304
1.00001973152
1.00001930543
1.00001887304
1.00001844892
1.00001802699
1.00001760825
1.00001719192
1.00001677777
1.00001636544
1.00001595468
1.00001554521
1.00001513682
1.00001472932
1.00001432256
1.00001391638
1.00001351069
1.00001310537
1.00001270036
1.00001229557
1.00001189096
1.00001148648
1.00001108208
1.00001067773
1.00001027341
1.00000986907
1.00000946469
1.00000906025
1.00000865571
1.00000825103
1.00000784617
1.00000744108
1.00000703571
1.00000662999
1.00000622383
1.00000581714
1.0000054098
1.00000500167
1.00000459259
1.00000418239
1.00000377083
1.00000335768
1.00000294267
1.00000252547
1.00000210585
1.00000168312
1.00000125802
1.0000008256
1.00000039691
0.9999998962
1.00002027
1.00001975565
1.00001932876
1.00001889492
1.00001846933
1.00001804579
1.00001762542
1.00001720746
1.00001679171
1.00001637786
1.00001596565
1.00001555483
1.00001514521
1.00001473658
1.00001432879
1.0000139217
1.00001351517
1.00001310911
1.00001270343
1.00001229804
1.00001189288
1.0000114879
1.00001108304
1.00001067825
1.0000102735
1.00000986875
1.00000946395
1.00000905907
1.00000865406
1.00000824888
1.00000784348
1.00000743779
1.00000703176
1.0000066253
1.00000621832
1.00000581071
1.00000540236
1.00000499313
1.00000458285
1.00000417133
1.00000375839
1.00000334377
1.00000292724
1.00000250851
1.00000208736
1.00000166317
1.00000123675
1.00000080309
1.00000037365
0.999999871139
1.00002029268
1.00001977599
1.00001934847
1.00001891344
1.00001848667
1.00001806183
1.00001764012
1.00001722081
1.00001680374
1.00001638861
1.00001597519
1.00001556324
1.00001515256
1.00001474296
1.00001433429
1.00001392639
1.00001351915
1.00001311243
1.00001270616
1.00001230024
1.0000118946
1.00001148917
1.00001108389
1.00001067872
1.00001027358
1.00000986845
1.00000946327
1.000009058
1.00000865258
1.00000824695
1.00000784107
1.00000743485
1.00000702823
1.00000662113
1.00000621343
1.00000580504
1.00000539583
1.00000498566
1.00000457435
1.00000416175
1.00000374764
1.00000333182
1.00000291405
1.00000249406
1.00000207168
1.00000164631
1.00000121884
1.0000007842
1.00000035419
0.999999850226
1.00002031129
1.00001979271
1.0000193647
1.00001892873
1.00001850101
1.00001807513
1.00001765235
1.00001723195
1.00001681381
1.00001639764
1.00001598322
1.00001557034
1.00001515879
1.00001474839
1.00001433898
1.00001393041
1.00001352255
1.00001311529
1.00001270851
1.00001230214
1.00001189608
1.00001149027
1.00001108463
1.00001067911
1.00001027365
1.00000986819
1.00000946269
1.00000905707
1.00000865129
1.00000824528
1.00000783898
1.00000743232
1.0000070252
1.00000661755
1.00000620926
1.00000580021
1.00000539028
1.00000497933
1.00000456719
1.00000415369
1.00000373864
1.00000332184
1.00000290307
1.00000248208
1.00000205874
1.00000163244
1.00000120415
1.00000076875
1.0000003383
0.99999983318
1.00002032599
1.00001980594
1.00001937755
1.00001894086
1.00001851242
1.00001808573
1.00001766212
1.00001724087
1.00001682189
1.00001640491
1.00001598971
1.00001557608
1.00001516384
1.0000147528
1.0000143428
1.00001393369
1.00001352534
1.00001311762
1.00001271044
1.0000123037
1.0000118973
1.00001149117
1.00001108524
1.00001067944
1.00001027371
1.00000986798
1.0000094622
1.0000090563
1.00000865022
1.0000082439
1.00000783726
1.00000743023
1.00000702272
1.00000661462
1.00000620585
1.00000579628
1.00000538578
1.0000049742
1.0000045614
1.0000041472
1.00000373141
1.00000331385
1.00000289431
1.00000247255
1.00000204846
1.00000162146
1.00000119254
1.00000075656
1.00000032578
0.999999819784
1.00002033692
1.00001981579
1.00001938712
1.0000189499
1.00001852093
1.00001809365
1.00001766943
1.00001724757
1.00001682797
1.00001641038
1.0000159946
1.00001558042
1.00001516766
1.00001475614
1.0000143457
1.00001393618
1.00001352746
1.00001311941
1.00001271192
1.00001230489
1.00001189823
1.00001149186
1.0000110857
1.00001067969
1.00001027375
1.00000986781
1.00000946182
1.00000905571
1.00000864941
1.00000824285
1.00000783595
1.00000742864
1.00000702082
1.00000661239
1.00000620326
1.00000579329
1.00000538236
1.00000497032
1.00000455703
1.0000041423
1.00000372598
1.00000330785
1.00000288774
1.00000246543
1.0000020408
1.00000161329
1.00000118392
1.00000074753
1.00000031651
0.999999809872
1.00002034415
1.00001982231
1.00001939346
1.0000189559
1.00001852659
1.00001809893
1.0000176743
1.00001725203
1.00001683203
1.00001641404
1.00001599787
1.00001558333
1.00001517023
1.00001475839
1.00001434765
1.00001393786
1.00001352889
1.00001312061
1.00001271291
1.00001230569
1.00001189886
1.00001149233
1.00001108602
1.00001067986
1.00001027377
1.0000098677
1.00000946156
1.00000905531
1.00000864885
1.00000824213
1.00000783506
1.00000742756
1.00000701953
1.00000661089
1.00000620151
1.00000579128
1.00000538006
1.00000496772
1.0000045541
1.00000413903
1.00000372235
1.00000330385
1.00000288338
1.00000246069
1.00000203571
1.00000160787
1.00000117821
1.00000074155
1.00000031039
0.999999803328
1.00002034776
1.00001982556
1.00001939662
1.00001895889
1.00001852941
1.00001810156
1.00001767674
1.00001725426
1.00001683406
1.00001641587
1.00001599952
1.00001558479
1.00001517152
1.00001475952
1.00001434863
1.00001393871
1.00001352961
1.00001312122
1.00001271341
1.0000123061
1.00001189918
1.00001149256
1.00001108618
1.00001067994
1.00001027378
1.00000986764
1.00000946143
1.0000090551
1.00000864857
1.00000824177
1.00000783461
1.00000742702
1.00000701889
1.00000661013
1.00000620063
1.00000579027
1.00000537891
1.00000496641
1.00000455263
1.00000413739
1.00000372053
1.00000330186
1.0000028812
1.00000245833
1.00000203317
1.00000160517
1.00000117537
1.00000073858
1.00000030734
0.999999800075
1.00002034776
1.00001982556
1.00001939662
1.00001895889
1.00001852941
1.00001810156
1.00001767674
1.00001725426
1.00001683406
1.00001641587
1.00001599952
1.00001558479
1.00001517152
1.00001475952
1.00001434863
1.00001393871
1.00001352961
1.00001312122
1.00001271341
1.0000123061
1.00001189918
1.00001149256
1.00001108618
1.00001067994
1.00001027378
1.00000986764
1.00000946143
1.0000090551
1.00000864857
1.00000824177
1.00000783461
1.00000742702
1.00000701889
1.00000661013
1.00000620063
1.00000579027
1.00000537891
1.00000496641
1.00000455263
1.00000413739
1.00000372053
1.00000330186
1.0000028812
1.00000245833
1.00000203317
1.00000160517
1.00000117537
1.00000073858
1.00000030734
0.999999800075
1.00002034415
1.00001982231
1.00001939346
1.0000189559
1.00001852659
1.00001809893
1.0000176743
1.00001725203
1.00001683203
1.00001641404
1.00001599787
1.00001558333
1.00001517023
1.00001475839
1.00001434765
1.00001393786
1.00001352889
1.00001312061
1.00001271291
1.00001230569
1.00001189886
1.00001149233
1.00001108602
1.00001067986
1.00001027377
1.0000098677
1.00000946156
1.00000905531
1.00000864885
1.00000824213
1.00000783506
1.00000742756
1.00000701953
1.00000661089
1.00000620151
1.00000579128
1.00000538006
1.00000496772
1.0000045541
1.00000413903
1.00000372235
1.00000330385
1.00000288338
1.00000246069
1.00000203571
1.00000160787
1.00000117821
1.00000074155
1.00000031039
0.999999803328
1.00002033692
1.00001981579
1.00001938712
1.0000189499
1.00001852093
1.00001809365
1.00001766943
1.00001724757
1.00001682797
1.00001641038
1.0000159946
1.00001558042
1.00001516766
1.00001475614
1.0000143457
1.00001393618
1.00001352746
1.00001311941
1.00001271192
1.00001230489
1.00001189823
1.00001149186
1.0000110857
1.00001067969
1.00001027375
1.00000986781
1.00000946182
1.00000905571
1.00000864941
1.00000824285
1.00000783595
1.00000742864
1.00000702082
1.00000661239
1.00000620326
1.00000579329
1.00000538236
1.00000497032
1.00000455703
1.0000041423
1.00000372598
1.00000330785
1.00000288774
1.00000246543
1.0000020408
1.00000161329
1.00000118392
1.00000074753
1.00000031651
0.999999809872
1.00002032599
1.00001980594
1.00001937755
1.00001894086
1.00001851242
1.00001808573
1.00001766212
1.00001724087
1.00001682189
1.00001640491
1.00001598971
1.00001557608
1.00001516384
1.0000147528
1.0000143428
1.00001393369
1.00001352534
1.00001311762
1.00001271044
1.0000123037
1.0000118973
1.00001149117
1.00001108524
1.00001067944
1.00001027371
1.00000986798
1.0000094622
1.0000090563
1.00000865022
1.0000082439
1.00000783726
1.00000743023
1.00000702272
1.00000661462
1.00000620585
1.00000579628
1.00000538578
1.0000049742
1.0000045614
1.0000041472
1.00000373141
1.00000331385
1.00000289431
1.00000247255
1.00000204846
1.00000162146
1.00000119254
1.00000075656
1.00000032578
0.999999819784
1.00002031129
1.00001979271
1.0000193647
1.00001892873
1.00001850101
1.00001807513
1.00001765235
1.00001723195
1.00001681381
1.00001639764
1.00001598322
1.00001557034
1.00001515879
1.00001474839
1.00001433898
1.00001393041
1.00001352255
1.00001311529
1.00001270851
1.00001230214
1.00001189608
1.00001149027
1.00001108463
1.00001067911
1.00001027365
1.00000986819
1.00000946269
1.00000905707
1.00000865129
1.00000824528
1.00000783898
1.00000743232
1.0000070252
1.00000661755
1.00000620926
1.00000580021
1.00000539028
1.00000497933
1.00000456719
1.00000415369
1.00000373864
1.00000332184
1.00000290307
1.00000248208
1.00000205874
1.00000163244
1.00000120415
1.00000076875
1.0000003383
0.99999983318
1.00002029268
1.00001977599
1.00001934847
1.00001891344
1.00001848667
1.00001806183
1.00001764012
1.00001722081
1.00001680374
1.00001638861
1.00001597519
1.00001556324
1.00001515256
1.00001474296
1.00001433429
1.00001392639
1.00001351915
1.00001311243
1.00001270616
1.00001230024
1.0000118946
1.00001148917
1.00001108389
1.00001067872
1.00001027358
1.00000986845
1.00000946327
1.000009058
1.00000865258
1.00000824695
1.00000784107
1.00000743485
1.00000702823
1.00000662113
1.00000621343
1.00000580504
1.00000539583
1.00000498566
1.00000457435
1.00000416175
1.00000374764
1.00000333182
1.00000291405
1.00000249406
1.00000207168
1.00000164631
1.00000121884
1.0000007842
1.00000035419
0.999999850226
1.00002027
1.00001975565
1.00001932876
1.00001889492
1.00001846933
1.00001804579
1.00001762542
1.00001720746
1.00001679171
1.00001637786
1.00001596565
1.00001555483
1.00001514521
1.00001473658
1.00001432879
1.0000139217
1.00001351517
1.00001310911
1.00001270343
1.00001229804
1.00001189288
1.0000114879
1.00001108304
1.00001067825
1.0000102735
1.00000986875
1.00000946395
1.00000905907
1.00000865406
1.00000824888
1.00000784348
1.00000743779
1.00000703176
1.0000066253
1.00000621832
1.00000581071
1.00000540236
1.00000499313
1.00000458285
1.00000417133
1.00000375839
1.00000334377
1.00000292724
1.00000250851
1.00000208736
1.00000166317
1.00000123675
1.00000080309
1.00000037365
0.999999871139
1.00002024304
1.00001973152
1.00001930543
1.00001887304
1.00001844892
1.00001802699
1.00001760825
1.00001719192
1.00001677777
1.00001636544
1.00001595468
1.00001554521
1.00001513682
1.00001472932
1.00001432256
1.00001391638
1.00001351069
1.00001310537
1.00001270036
1.00001229557
1.00001189096
1.00001148648
1.00001108208
1.00001067773
1.00001027341
1.00000986907
1.00000946469
1.00000906025
1.00000865571
1.00000825103
1.00000784617
1.00000744108
1.00000703571
1.00000662999
1.00000622383
1.00000581714
1.0000054098
1.00000500167
1.00000459259
1.00000418239
1.00000377083
1.00000335768
1.00000294267
1.00000252547
1.00000210585
1.00000168312
1.00000125802
1.0000008256
1.00000039691
0.9999998962
1.00002021151
1.00001970338
1.00001927829
1.00001884769
1.00001842536
1.00001800537
1.0000175886
1.00001717423
1.00001676197
1.00001635144
1.00001594236
1.00001553445
1.00001512748
1.00001472128
1.00001431568
1.00001391055
1.00001350578
1.00001310129
1.00001269702
1.00001229289
1.00001188888
1.00001148494
1.00001108104
1.00001067717
1.0000102733
1.00000986941
1.00000946549
1.00000906152
1.00000865747
1.00000825334
1.00000784907
1.00000744465
1.00000704002
1.00000663512
1.00000622988
1.00000582423
1.00000541803
1.00000501118
1.0000046035
1.00000419482
1.0000037849
1.0000033735
1.00000296031
1.00000254497
1.00000212721
1.0000017063
1.00000128286
1.00000085198
1.00000042425
0.999999925764
1.00002017506
1.00001967097
1.00001924713
1.0000188187
1.00001839856
1.00001798091
1.00001756649
1.00001715443
1.00001674439
1.00001633595
1.00001592881
1.00001552267
1.00001511732
1.00001471257
1.00001430826
1.00001390429
1.00001350054
1.00001309696
1.00001269348
1.00001229006
1.00001188668
1.00001148332
1.00001107995
1.00001067657
1.00001027317
1.00000986975
1.00000946631
1.00000906283
1.00000865932
1.00000825575
1.00000785213
1.00000744841
1.00000704458
1.00000664058
1.00000623637
1.00000583185
1.00000542695
1.00000502154
1.00000461546
1.00000420853
1.00000380052
1.00000339116
1.00000298014
1.00000256704
1.00000215154
1.00000173285
1.00000131147
1.00000088254
1.00000045603
0.999999960282
1.00002013323
1.00001963395
1.00001921167
1.00001878591
1.00001836841
1.00001795358
1.00001754195
1.00001713261
1.00001672515
1.00001631911
1.00001591417
1.00001551004
1.00001510649
1.00001470334
1.00001430045
1.00001389773
1.00001349508
1.00001309246
1.00001268982
1.00001228715
1.00001188443
1.00001148166
1.00001107883
1.00001067596
1.00001027304
1.0000098701
1.00000946713
1.00000906416
1.00000866119
1.00000825822
1.00000785525
1.00000745228
1.00000704929
1.00000664626
1.00000624314
1.00000583988
1.0000054364
1.00000503259
1.00000462831
1.00000422337
1.00000381756
1.00000341058
1.0000030021
1.00000259168
1.00000217891
1.00000176294
1.00000134411
1.00000091762
1.00000049269
1.00000000032
1.00002008544
1.0000195919
1.0000191716
1.00001874909
1.00001833481
1.00001792336
1.00001751505
1.00001710888
1.00001670439
1.00001630109
1.00001589864
1.00001549674
1.00001509517
1.00001469376
1.00001429241
1.00001389101
1.00001348953
1.00001308791
1.00001268615
1.00001228424
1.00001188219
1.00001148001
1.00001107772
1.00001067534
1.0000102729
1.00000987042
1.00000946793
1.00000906546
1.00000866302
1.00000826064
1.00000785835
1.00000745614
1.00000705403
1.00000665201
1.00000625005
1.00000584814
1.00000544619
1.00000504414
1.00000464185
1.00000423916
1.00000383584
1.00000343161
1.00000302611
1.00000261885
1.00000220938
1.00000179674
1.00000138108
1.00000095766
1.00000053477
1.0000000466
1.00002003092
1.00001954431
1.00001912653
1.00001870804
1.00001829768
1.00001789028
1.00001748587
1.0000170834
1.00001668231
1.00001628211
1.00001588243
1.00001548298
1.00001508357
1.00001468404
1.00001428431
1.00001388432
1.00001348403
1.00001308345
1.00001268257
1.00001228142
1.00001188003
1.00001147843
1.00001107666
1.00001067475
1.00001027276
1.00000987072
1.00000946868
1.00000906668
1.00000866476
1.00000826296
1.00000786132
1.00000745988
1.00000705865
1.00000665767
1.00000625692
1.00000585642
1.00000545612
1.00000505596
1.00000465585
1.00000425565
1.00000385514
1.00000345405
1.000003052
1.00000264848
1.00000224296
1.00000183439
1.00000142268
1.00000100315
1.00000058294
1.00000010005
1.00001996867
1.00001949053
1.00001907599
1.00001866249
1.00001825694
1.00001785441
1.00001745461
1.00001705641
1.0000166592
1.00001626247
1.00001586585
1.00001546907
1.00001507196
1.00001467442
1.00001427638
1.00001387783
1.00001347876
1.00001307921
1.0000126792
1.00001227879
1.00001187803
1.00001147697
1.00001107568
1.00001067421
1.00001027262
1.00000987098
1.00000946935
1.00000906778
1.00000866634
1.00000826508
1.00000786407
1.00000746336
1.00000706301
1.00000666306
1.00000626354
1.00000586449
1.0000054659
1.00000506777
1.00000467001
1.00000427253
1.00000387515
1.00000347761
1.00000307954
1.00000268042
1.00000227962
1.00000187603
1.00000146926
1.00000105469
1.00000063801
1.00000016186
1.00001989738
1.00001942975
1.00001901945
1.00001861222
1.00001821258
1.0000178159
1.00001742151
1.00001702824
1.00001663542
1.00001624253
1.00001584924
1.00001545533
1.00001506066
1.00001466518
1.00001426887
1.00001387177
1.00001347391
1.00001307535
1.00001267618
1.00001227646
1.00001187627
1.0000114757
1.00001107483
1.00001067374
1.0000102725
1.0000098712
1.00000946991
1.00000906871
1.00000866768
1.00000826691
1.00000786647
1.00000746645
1.00000706693
1.00000666797
1.00000626967
1.00000587208
1.00000547526
1.00000507922
1.00000468396
1.00000428943
1.00000389549
1.00000350192
1.0000031084
1.00000271439
1.00000231922
1.00000192172
1.00000152114
1.00000111296
1.000000701
1.00000023361
1.00001981525
1.00001936095
1.0000189563
1.00001855702
1.00001816467
1.00001777503
1.00001738698
1.00001699934
1.00001661143
1.00001622277
1.00001583307
1.00001544218
1.00001505003
1.00001465665
1.00001426207
1.00001386638
1.00001346968
1.00001307206
1.00001267365
1.00001227454
1.00001187486
1.0000114747
1.00001107417
1.00001067337
1.0000102724
1.00000987135
1.00000947033
1.00000906942
1.00000866873
1.00000826836
1.00000786841
1.000007469
1.00000707022
1.0000066722
1.00000627506
1.0000058789
1.00000548382
1.00000508993
1.00000469726
1.00000430584
1.00000391563
1.00000352646
1.00000313807
1.00000274998
1.0000023615
1.00000197142
1.0000015786
1.00000117871
1.00000077313
1.0000003174
1.00001971983
1.00001928291
1.00001888586
1.00001849677
1.00001811346
1.00001773224
1.00001735158
1.00001697034
1.00001658787
1.00001620377
1.00001581787
1.0000154301
1.00001504052
1.0000146492
1.0000142563
1.00001386194
1.0000134663
1.00001306952
1.00001267176
1.00001227316
1.00001187388
1.00001147403
1.00001107374
1.00001067314
1.00001027234
1.00000987145
1.00000947059
1.00000906987
1.00000866941
1.00000826933
1.00000786976
1.00000747084
1.0000070727
1.00000667551
1.00000627942
1.00000588459
1.0000054912
1.00000509941
1.00000470937
1.00000432119
1.00000393492
1.00000355054
1.00000316788
1.00000278656
1.00000240595