/*--------------------------------*- C++ -*----------------------------------*\
| =========                 |                                                 |
| \\      /  F ield         | OpenFOAM: The Open Source CFD Toolbox           |
|  \\    /   O peration     | Version:  2.4.0                                 |
|   \\  /    A nd           | Web:      www.OpenFOAM.org                      |
|    \\/     M anipulation  |                                                 |
\*---------------------------------------------------------------------------*/
FoamFile
{
    version     2.0;
    format      ascii;
    class       volVectorField;
    location    "900";
    object      U;
}
// * * * * * * * * * * * * * * * * * * * * * * * * * * * * * * * * * * * * * //

dimensions      [0 1 -1 0 0 0 0];

internalField   nonuniform List<vector> 
2500
(
(-0.112385521505 -0.013800522808 0)
(-0.0855495832019 -0.0094036010442 0)
(-0.0703107606273 -0.00481233419704 0)
(-0.0615798964788 -0.00270613750023 0)
(-0.0560414557811 -0.00161128584969 0)
(-0.052351972532 -0.00105442909341 0)
(-0.0497104933327 -0.000731519659151 0)
(-0.0477494214664 -0.000533707833039 0)
(-0.0462449675554 -0.000401107509472 0)
(-0.0450696657348 -0.000307732246864 0)
(-0.044139634114 -0.000238556025151 0)
(-0.0433992691955 -0.000185628047259 0)
(-0.0428090997096 -0.000143949224726 0)
(-0.0423405173182 -0.000110424949923 0)
(-0.0419720677681 -8.29534443266e-05 0)
(-0.0416873828015 -6.0089312562e-05 0)
(-0.0414737508787 -4.07874930342e-05 0)
(-0.0413211978179 -2.42773497933e-05 0)
(-0.0412218378072 -9.97289666816e-06 0)
(-0.0411694211237 2.58040183987e-06 0)
(-0.0411590056012 1.3743181502e-05 0)
(-0.0411867173736 2.38071179907e-05 0)
(-0.0412495737552 3.30129184913e-05 0)
(-0.0413453523396 4.15632073166e-05 0)
(-0.0414724947865 4.96321849385e-05 0)
(-0.0416300378557 5.73729769918e-05 0)
(-0.0418175665418 6.49234158915e-05 0)
(-0.0420351860032 7.24106961808e-05 0)
(-0.0422835102751 7.99552261618e-05 0)
(-0.0425636668073 8.76738517605e-05 0)
(-0.0428773167841 9.5682534677e-05 0)
(-0.0432266919122 0.000104098334742 0)
(-0.0436146492207 0.00011304036906 0)
(-0.0440447455991 0.000122628558065 0)
(-0.0445213348154 0.000132978539942 0)
(-0.0450496875616 0.000144187738428 0)
(-0.0456361382732 0.00015630793241 0)
(-0.0462882532152 0.000169288319855 0)
(-0.0470150407696 0.000182889080901 0)
(-0.0478272154889 0.000196538253081 0)
(-0.0487377199608 0.000209246480738 0)
(-0.049762874887 0.000219675931165 0)
(-0.0509254969385 0.000227319214261 0)
(-0.052263242526 0.000235929384246 0)
(-0.0538469255943 0.000264130067441 0)
(-0.0558319030982 0.00036830312103 0)
(-0.0585210177808 0.000691407742851 0)
(-0.0626372235911 0.0015357030455 0)
(-0.0690703498216 0.00357142970818 0)
(-0.0807034055748 0.00816776084038 0)
(-0.256880129553 -0.0429325430339 0)
(-0.226631085166 -0.0309197582982 0)
(-0.205649790385 -0.0182758892502 0)
(-0.190670319472 -0.011922886872 0)
(-0.179642420114 -0.00802730202481 0)
(-0.171438033327 -0.00572995439768 0)
(-0.165168956934 -0.00421900427896 0)
(-0.160308998558 -0.00319097891624 0)
(-0.156486020892 -0.0024475925675 0)
(-0.153454254937 -0.00189196542743 0)
(-0.151038774115 -0.00146191674978 0)
(-0.149114903933 -0.00112095199049 0)
(-0.147590344284 -0.000844581143217 0)
(-0.146395738867 -0.000616567037227 0)
(-0.145477836329 -0.000425389863199 0)
(-0.144795236935 -0.000262763303375 0)
(-0.144315386826 -0.00012249156243 0)
(-0.14401253253 1.51538832168e-07 0)
(-0.143866249247 0.000108868906548 0)
(-0.143860384295 0.000206622408247 0)
(-0.14398227915 0.00029583552463 0)
(-0.144222195042 0.000378534376987 0)
(-0.144572886215 0.000456452442271 0)
(-0.145029285686 0.000531109139791 0)
(-0.145588278632 0.000603871619623 0)
(-0.146248547084 0.000676004995086 0)
(-0.147010475091 0.000748715250354 0)
(-0.147876107892 0.000823187784086 0)
(-0.148849162107 0.000900624099718 0)
(-0.149935087088 0.000982278797225 0)
(-0.15114118075 0.00106949905938 0)
(-0.152476766627 0.00116376881356 0)
(-0.153953443765 0.00126676041002 0)
(-0.155585426358 0.00138039641838 0)
(-0.157390001416 0.0015069267225 0)
(-0.159388142557 0.00164902385132 0)
(-0.161605353399 0.00180991256405 0)
(-0.164072830566 0.0019935403673 0)
(-0.166829161537 0.00220487212446 0)
(-0.169922767175 0.00245036229086 0)
(-0.173415724275 0.00273908648019 0)
(-0.177389306133 0.00308488053397 0)
(-0.181952590723 0.00351196905829 0)
(-0.187253851125 0.00406532194531 0)
(-0.193491929718 0.00483626328476 0)
(-0.200929150646 0.00600106296832 0)
(-0.209833226271 0.00790957000635 0)
(-0.220500048104 0.0111451457928 0)
(-0.232553543986 0.016727365996 0)
(-0.246113733551 0.0250265233794 0)
(-0.324278219386 -0.0622387500251 0)
(-0.307514736746 -0.0476617888218 0)
(-0.293048114841 -0.0313359594263 0)
(-0.280645537402 -0.0222944585943 0)
(-0.270499761897 -0.0159768362745 0)
(-0.262361537058 -0.0118883792134 0)
(-0.255837130286 -0.00898673032704 0)
(-0.250609743586 -0.0069001214562 0)
(-0.246411670502 -0.00532761178916 0)
(-0.243043042854 -0.00411465162323 0)
(-0.240349114175 -0.00315254493331 0)
(-0.238212065962 -0.00237431802339 0)
(-0.236540303516 -0.00173282702925 0)
(-0.235262267667 -0.00119569539222 0)
(-0.234321371535 -0.000739247972052 0)
(-0.233672610628 -0.000346011393106 0)
(-0.233280010459 -2.62436478363e-06 0)
(-0.233114796664 0.000301315604085 0)
(-0.233154022474 0.000574113027988 0)
(-0.233379547171 0.00082253058103 0)
(-0.233777262082 0.00105219838945 0)
(-0.234336505204 0.00126790520377 0)
(-0.235049618289 0.00147381950964 0)
(-0.235911616184 0.00167365945279 0)
(-0.236919946388 0.00187082982278 0)
(-0.238074323828 0.00206853650604 0)
(-0.239376630571 0.00226988711023 0)
(-0.240830873973 0.00247798410081 0)
(-0.242443199797 0.00269601608419 0)
(-0.244221959403 0.00292735240061 0)
(-0.246177832764 0.00317564658826 0)
(-0.248324011189 0.00344495485797 0)
(-0.250676447459 0.00373987785877 0)
(-0.25325418235 0.00406573543669 0)
(-0.256079765989 0.00442879138781 0)
(-0.259179787137 0.00483654654679 0)
(-0.262585557155 0.00529814725068 0)
(-0.266333944819 0.00582494917931 0)
(-0.270468496216 0.00643140340038 0)
(-0.275040647704 0.00713634909009 0)
(-0.280111425011 0.00796537302377 0)
(-0.285752182064 0.00895422269929 0)
(-0.292045413996 0.0101558609341 0)
(-0.299077649698 0.0116487656877 0)
(-0.306926594472 0.0135564936205 0)
(-0.31560940865 0.0160539956166 0)
(-0.324994890515 0.0194093847833 0)
(-0.33460440935 0.0238745053113 0)
(-0.343353768261 0.0298057806471 0)
(-0.349599374635 0.0365469678769 0)
(-0.362298278874 -0.0692262389811 0)
(-0.357568645748 -0.0553748001582 0)
(-0.350892454241 -0.0390715515085 0)
(-0.343527524895 -0.0293102985593 0)
(-0.336629800079 -0.0218222384089 0)
(-0.330561319656 -0.0166712018234 0)
(-0.325407121878 -0.0128050161739 0)
(-0.321115874107 -0.00991175085913 0)
(-0.317589073277 -0.00765809308343 0)
(-0.314725390285 -0.00587476934803 0)
(-0.312431488585 -0.00443008461947 0)
(-0.310627542848 -0.00324095726408 0)
(-0.309246440151 -0.00224593746475 0)
(-0.308232622601 -0.00140170244011 0)
(-0.307540265225 -0.000675594985995 0)
(-0.307131738624 -4.29658314648e-05 0)
(-0.306976239195 0.000515447478839 0)
(-0.307048686361 0.00101491942034 0)
(-0.307328821126 0.00146785202758 0)
(-0.307800485957 0.00188449780185 0)
(-0.308451046808 0.00227350996149 0)
(-0.30927093222 0.00264233928795 0)
(-0.310253266166 0.00299754204138 0)
(-0.311393577483 0.00334501998527 0)
(-0.312689571759 0.00369021655724 0)
(-0.314140954638 0.00403828209124 0)
(-0.315749297473 0.00439421944955 0)
(-0.317517937605 0.00476301808491 0)
(-0.319451906424 0.00514978360102 0)
(-0.321557878371 0.00555986896287 0)
(-0.323844133915 0.00599901364989 0)
(-0.32632052745 0.00647349714694 0)
(-0.328998450686 0.00699031502822 0)
(-0.331890773921 0.00755738611948 0)
(-0.335011751979 0.00818380626079 0)
(-0.338376848696 0.00888016093213 0)
(-0.342002472663 0.00965893770734 0)
(-0.345905464537 0.0105350504308 0)
(-0.350102412364 0.0115266143627 0)
(-0.354608104148 0.0126559172884 0)
(-0.359433751321 0.0139511206306 0)
(-0.364581658411 0.0154480101023 0)
(-0.370040416156 0.0171939846944 0)
(-0.375764251582 0.0192491162005 0)
(-0.381662431504 0.0216945738593 0)
(-0.387517103027 0.0246147552777 0)
(-0.392999402474 0.0281148298698 0)
(-0.397338496832 0.0321677685989 0)
(-0.399856223611 0.0367438655606 0)
(-0.398480535059 0.0409944326258 0)
(-0.388628203032 -0.0686829047051 0)
(-0.391917571356 -0.056959690377 0)
(-0.391273037138 -0.0423678023072 0)
(-0.388515100859 -0.032989575331 0)
(-0.384963748739 -0.0252678939934 0)
(-0.381307261826 -0.0196752197809 0)
(-0.377917198531 -0.0152758656305 0)
(-0.37493504681 -0.0118684724252 0)
(-0.372401550473 -0.00913651990987 0)
(-0.370305959649 -0.00692583619933 0)
(-0.368617043528 -0.00510139412016 0)
(-0.367296791933 -0.00357669514365 0)
(-0.366307198018 -0.00228423578211 0)
(-0.365613114806 -0.00117528524138 0)
(-0.365183336522 -0.000211959567841 0)
(-0.364990798743 0.000634934810673 0)
(-0.365012395971 0.00138868185368 0)
(-0.365228639629 0.00206804172265 0)
(-0.365623272688 0.00268846160557 0)
(-0.366182890594 0.00326285390471 0)
(-0.366896591277 0.00380221232804 0)
(-0.36775566066 0.0043160594422 0)
(-0.368753293564 0.00481280026454 0)
(-0.369884346008 0.00529999907195 0)
(-0.371145113404 0.00578460589894 0)
(-0.372533128161 0.00627314524547 0)
(-0.374046969661 0.0067718788419 0)
(-0.375686078854 0.0072869501298 0)
(-0.377450568993 0.00782451695034 0)
(-0.379341022488 0.00839087736912 0)
(-0.381358262804 0.00899259309107 0)
(-0.383503086376 0.00963661404653 0)
(-0.385775939812 0.0103304085352 0)
(-0.388176515172 0.011082101614 0)
(-0.390703248311 0.0119006297038 0)
(-0.393352654692 0.0127959112813 0)
(-0.396118519021 0.0137790591648 0)
(-0.398990712919 0.014862615148 0)
(-0.401953879406 0.016060909293 0)
(-0.404984981396 0.0173903946913 0)
(-0.408051273765 0.0188703937398 0)
(-0.411103723745 0.0205232850848 0)
(-0.414075179296 0.0223761128958 0)
(-0.416857435329 0.0244578171419 0)
(-0.419312708516 0.0268022596202 0)
(-0.421178616096 0.0294243945058 0)
(-0.422205894495 0.0323291604918 0)
(-0.421699694366 0.0353776166505 0)
(-0.419618006206 0.0383892081415 0)
(-0.413911326357 0.0406849538477 0)
(-0.407644387759 -0.0642088028376 0)
(-0.415755587827 -0.0549458548108 0)
(-0.419255541092 -0.0425860585659 0)
(-0.420007822988 -0.0340899144537 0)
(-0.419201129149 -0.0266849657948 0)
(-0.417664814608 -0.0210675755796 0)
(-0.415894992022 -0.016472945949 0)
(-0.41414968009 -0.0128062446124 0)
(-0.412562145609 -0.00979295765112 0)
(-0.41118948357 -0.00730733826978 0)
(-0.410050420127 -0.0052234940912 0)
(-0.409142832619 -0.00345986584016 0)
(-0.408454910365 -0.00194914592027 0)
(-0.407970609495 -0.000641653197866 0)
(-0.407672804985 0.000502424818269 0)
(-0.407544810113 0.00151435839964 0)
(-0.407571148097 0.00241955401956 0)
(-0.407737847809 0.00323875590869 0)
(-0.408032508634 0.003989230243 0)
(-0.408444230013 0.00468551254549 0)
(-0.408963476463 0.0053400270081 0)
(-0.409581909047 0.00596353767471 0)
(-0.410292202965 0.00656551104858 0)
(-0.41108785927 0.00715439975402 0)
(-0.411963014109 0.00773787377581 0)
(-0.412912245071 0.00832300969759 0)
(-0.413930372252 0.00891644915145 0)
(-0.415012250027 0.00952453305506 0)
(-0.416152544604 0.0101534172168 0)
(-0.41734549101 0.0108091730911 0)
(-0.418584623259 0.0114978768547 0)
(-0.419862468125 0.0122256888459 0)
(-0.421170197177 0.0129989259991 0)
(-0.422497218164 0.0138241278742 0)
(-0.423830712273 0.0147081218201 0)
(-0.425155057886 0.0156580840137 0)
(-0.426451216853 0.0166816170758 0)
(-0.427695822382 0.0177868183405 0)
(-0.428860422541 0.0189824237262 0)
(-0.429909583997 0.0202778619168 0)
(-0.430800381765 0.0216835768254 0)
(-0.431476612463 0.0232106589884 0)
(-0.431871831047 0.0248714045809 0)
(-0.431886166961 0.02667566221 0)
(-0.431416738454 0.0286310860805 0)
(-0.430251333148 0.0307217719743 0)
(-0.428283283935 0.032908825032 0)
(-0.42497094862 0.0350388514983 0)
(-0.420681393791 0.036892886941 0)
(-0.413588566956 0.0380573001707 0)
(-0.420613768285 -0.0580701593013 0)
(-0.43116537643 -0.0511055983189 0)
(-0.437212811458 -0.0409672930876 0)
(-0.440372485416 -0.0335237732802 0)
(-0.441594636626 -0.0267064190993 0)
(-0.441712856599 -0.0213090270497 0)
(-0.441243579596 -0.0167469600076 0)
(-0.440502637738 -0.01300930794 0)
(-0.439675502826 -0.00987314143157 0)
(-0.438864904674 -0.0072437636292 0)
(-0.438125723617 -0.00501079422715 0)
(-0.437483849786 -0.00310187494164 0)
(-0.436948907261 -0.0014537762015 0)
(-0.436521163367 -1.87777886561e-05 0)
(-0.436195906798 0.00124250685925 0)
(-0.435965868064 0.00236157381611 0)
(-0.435822676568 0.00336444885936 0)
(-0.435757650139 0.00427262544132 0)
(-0.435762226285 0.00510414770771 0)
(-0.435828159748 0.00587427721138 0)
(-0.435947587889 0.00659607610387 0)
(-0.436113012865 0.00728083334988 0)
(-0.436317235243 0.00793841465734 0)
(-0.436553257287 0.00857753708728 0)
(-0.436814167484 0.00920599365962 0)
(-0.437093012274 0.00983083580552 0)
(-0.43738265819 0.0104585240663 0)
(-0.437675645437 0.0110950527735 0)
(-0.437964033152 0.0117460539567 0)
(-0.438239235212 0.0124168840818 0)
(-0.438491846477 0.0131126968486 0)
(-0.438711455887 0.0138385043731 0)
(-0.438886449648 0.0145992298029 0)
(-0.439003790944 0.015399752725 0)
(-0.439048797284 0.0162449531623 0)
(-0.439004851558 0.0171397519297 0)
(-0.438853159956 0.0180891646153 0)
(-0.438572239608 0.0190983441566 0)
(-0.438137736754 0.0201726723379 0)
(-0.437520988611 0.0213177459806 0)
(-0.43668955237 0.0225394904424 0)
(-0.435601685575 0.0238435950964 0)
(-0.434212193298 0.0252352767298 0)
(-0.432448461213 0.026715629545 0)
(-0.430250956976 0.0282793218948 0)
(-0.427462060028 0.0298984920201 0)
(-0.424071773403 0.0315148135024 0)
(-0.419665851917 0.0329938403698 0)
(-0.414768410046 0.0341234517617 0)
(-0.407848392119 0.0347093660325 0)
(-0.428333654557 -0.0515459691604 0)
(-0.439658120526 -0.0465015427626 0)
(-0.447016766015 -0.0383529833698 0)
(-0.451653143144 -0.0319727025971 0)
(-0.454251921152 -0.0258586440951 0)
(-0.455558472664 -0.0208224629801 0)
(-0.45605013173 -0.0164431974456 0)
(-0.456057081281 -0.0127705334962 0)
(-0.455786896297 -0.00963387982605 0)
(-0.455369369509 -0.00696750728724 0)
(-0.454883344078 -0.00467918335304 0)
(-0.454375287423 -0.00270749593288 0)
(-0.453871547794 -0.000995488724982 0)
(-0.453385857305 0.000500863721234 0)
(-0.452924227688 0.0018189792929 0)
(-0.452487912608 0.00298932293404 0)
(-0.452075301045 0.00403748224575 0)
(-0.451683063286 0.00498482232942 0)
(-0.451306862513 0.00584942722922 0)
(-0.450941774775 0.00664666288228 0)
(-0.450582532328 0.0073897031133 0)
(-0.450223651188 0.00808991699673 0)
(-0.449859486862 0.00875719618079 0)
(-0.449484243745 0.00940021483657 0)
(-0.449091955603 0.0100266455138 0)
(-0.44867644771 0.0106433361116 0)
(-0.448231287746 0.0112564573959 0)
(-0.447749729692 0.0118716260128 0)
(-0.447224653815 0.0124940079963 0)
(-0.446648503807 0.0131284063178 0)
(-0.44601322306 0.0137793358179 0)
(-0.44531018717 0.0144510880711 0)
(-0.444530137236 0.0151477892196 0)
(-0.443663097172 0.0158734521962 0)
(-0.442698298105 0.0166320275669 0)
(-0.441624031091 0.0174274499444 0)
(-0.440427555153 0.0182636887942 0)
(-0.439094691045 0.0191447778942 0)
(-0.437609787081 0.0200748477847 0)
(-0.435954286281 0.0210580300981 0)
(-0.434107534897 0.0220983173492 0)
(-0.432041163119 0.0231988151076 0)
(-0.429726088838 0.0243607263747 0)
(-0.427108888003 0.0255800497486 0)
(-0.424156057145 0.0268433327381 0)
(-0.420747467274 0.0281176378888 0)
(-0.416920582596 0.029337186471 0)
(-0.41235807959 0.0303940907808 0)
(-0.407596980661 0.0311044441077 0)
(-0.401387004472 0.0314083839795 0)
(-0.431776554117 -0.0453116280561 0)
(-0.442822883864 -0.041754557711 0)
(-0.450614591058 -0.0352903854837 0)
(-0.456014230857 -0.0299074545933 0)
(-0.459459874016 -0.0245279305084 0)
(-0.461560233254 -0.0199305412807 0)
(-0.462723175876 -0.0158302410209 0)
(-0.463262562474 -0.0123178592077 0)
(-0.463386978964 -0.00927115731304 0)
(-0.463238473362 -0.0066497084439 0)
(-0.46290988531 -0.00437988972087 0)
(-0.462461769673 -0.00241160232292 0)
(-0.461932968154 -0.000695254087416 0)
(-0.461348026391 0.000808551518263 0)
(-0.460722071713 0.00213433105864 0)
(-0.460064012157 0.00331073571788 0)
(-0.459378649342 0.00436224010312 0)
(-0.458668050182 0.00530952549349 0)
(-0.457932450106 0.00617026007083 0)
(-0.4571708394 0.00695955021406 0)
(-0.456381346656 0.00769039845171 0)
(-0.455561486311 0.00837404532623 0)
(-0.454708317949 0.00902026885016 0)
(-0.453818546915 0.00963762688076 0)
(-0.452888586578 0.0102336629239 0)
(-0.451914595212 0.0108150778646 0)
(-0.450892496234 0.0113878757154 0)
(-0.449817987142 0.0119574872584 0)
(-0.44868654068 0.0125288759169 0)
(-0.447493399112 0.0131066288579 0)
(-0.44623356289 0.0136950361014 0)
(-0.444901768898 0.0142981595595 0)
(-0.443492461157 0.0149198938648 0)
(-0.441999732611 0.0155640191206 0)
(-0.440417260048 0.0162342464212 0)
(-0.438738143864 0.0169342507902 0)
(-0.436954787882 0.0176676899377 0)
(-0.435058430003 0.0184381833483 0)
(-0.433039058974 0.0192492416152 0)
(-0.430883911068 0.0201040505126 0)
(-0.428578348578 0.0210050667122 0)
(-0.426100475931 0.0219531368682 0)
(-0.423428663944 0.022945940246 0)
(-0.420519911793 0.0239753182207 0)
(-0.417353949835 0.0250222030822 0)
(-0.413837358547 0.0260519936641 0)
(-0.410028031768 0.0269995996126 0)
(-0.405683127411 0.0277821920668 0)
(-0.401294352631 0.0282523206887 0)
(-0.395838779391 0.0284167655056 0)
(-0.432100307729 -0.0396701107058 0)
(-0.44230632906 -0.0372035656927 0)
(-0.449971009131 -0.0321140990376 0)
(-0.455635620969 -0.0276265852175 0)
(-0.459535911138 -0.0229639697843 0)
(-0.462131583922 -0.0188403885409 0)
(-0.463749563184 -0.0150760254001 0)
(-0.464668119495 -0.0117871601056 0)
(-0.465082773804 -0.00889346793722 0)
(-0.465136432972 -0.0063757631697 0)
(-0.464927969398 -0.0041782232187 0)
(-0.464526420257 -0.00226170015923 0)
(-0.463979300618 -0.000584364257222 0)
(-0.463319396606 0.00088811729773 0)
(-0.462569250752 0.00218683227987 0)
(-0.461744339703 0.00333815200258 0)
(-0.460855225377 0.00436502046237 0)
(-0.459909030227 0.00528709061259 0)
(-0.458910445128 0.00612133538424 0)
(-0.45786242031 0.00688238637673 0)
(-0.456766642108 0.00758291741365 0)
(-0.455623863428 0.00823393651523 0)
(-0.454434134898 0.00884505274089 0)
(-0.453196967569 0.00942469707862 0)
(-0.451911448275 0.00998031451782 0)
(-0.450576321492 0.0105185270899 0)
(-0.44919004689 0.0110452742767 0)
(-0.447750838124 0.0115659333205 0)
(-0.446256686314 0.0120854227484 0)
(-0.444705368658 0.01260829119 0)
(-0.443094442934 0.0131387932891 0)
(-0.441421222212 0.0136809535974 0)
(-0.439682732214 0.0142386187687 0)
(-0.437875629092 0.0148154966931 0)
(-0.43599610113 0.0154151801775 0)
(-0.434039667006 0.016041148252 0)
(-0.432001013377 0.0166967354063 0)
(-0.429873494179 0.017385046907 0)
(-0.427649042123 0.0181087863567 0)
(-0.425316760616 0.0188699414574 0)
(-0.422863938332 0.0196692018384 0)
(-0.420271315836 0.0205050633028 0)
(-0.417520796371 0.0213720743047 0)
(-0.414576639723 0.0222589245655 0)
(-0.411426943782 0.0231435245101 0)
(-0.408000056886 0.0239922674411 0)
(-0.404362148309 0.0247461552838 0)
(-0.400326379805 0.0253431290254 0)
(-0.396324965496 0.0256713613741 0)
(-0.391503089312 0.0257636476508 0)
(-0.430461347029 -0.0347097587723 0)
(-0.439609689503 -0.0330121447925 0)
(-0.446840607323 -0.0290150199619 0)
(-0.45245785198 -0.0253057752128 0)
(-0.45654748411 -0.0213118862012 0)
(-0.459431808354 -0.0176659314936 0)
(-0.46135770696 -0.0142643157921 0)
(-0.46255823503 -0.0112361865912 0)
(-0.463207176717 -0.00853554816305 0)
(-0.463439970123 -0.00616035232405 0)
(-0.463355253447 -0.00407096761676 0)
(-0.463025740602 -0.00223840791999 0)
(-0.462504135524 -0.000628548948433 0)
(-0.461828918052 0.000787758698926 0)
(-0.461028195983 0.0020379062395 0)
(-0.460122654207 0.00314571204859 0)
(-0.459127600174 0.00413232097745 0)
(-0.458054435753 0.00501612373195 0)
(-0.456911692524 0.00581319856646 0)
(-0.45570576961 0.00653754015331 0)
(-0.454441459611 0.00720136515938 0)
(-0.453122326885 0.0078153511869 0)
(-0.4517509814 0.00838886666648 0)
(-0.450329278313 0.00893016603036 0)
(-0.448858463836 0.0094465635741 0)
(-0.447339281295 0.00994458324454 0)
(-0.445772046726 0.0104300889156 0)
(-0.444156699749 0.0109083962967 0)
(-0.442492833467 0.0113843686842 0)
(-0.440779704149 0.0118624976871 0)
(-0.43901622197 0.0123469697894 0)
(-0.437200917882 0.0128417187457 0)
(-0.435331890312 0.0133504629216 0)
(-0.433406711625 0.0138767252727 0)
(-0.431422320635 0.014423831456 0)
(-0.429374820912 0.0149948789289 0)
(-0.427259330948 0.0155926627243 0)
(-0.425069536464 0.0162195417845 0)
(-0.422797677061 0.0168771996612 0)
(-0.420433366818 0.0175662828578 0)
(-0.417964773437 0.0182857498332 0)
(-0.415374682015 0.0190320580412 0)
(-0.412648060336 0.0197974843338 0)
(-0.409756066608 0.0205689151624 0)
(-0.406693634108 0.0213236283756 0)
(-0.403407212598 0.0220308444112 0)
(-0.399965467669 0.0226402029379 0)
(-0.396221632082 0.0231057137924 0)
(-0.392552067902 0.0233455872266 0)
(-0.388220682188 0.0233983911637 0)
(-0.427832633046 -0.0304031463161 0)
(-0.435918886494 -0.0292336096588 0)
(-0.442589057822 -0.0260873639362 0)
(-0.447988921489 -0.0230372226021 0)
(-0.452104151076 -0.019645808154 0)
(-0.455143333608 -0.0164587075967 0)
(-0.457281719167 -0.0134237532988 0)
(-0.458704900684 -0.0106731742263 0)
(-0.459560495715 -0.00818747189878 0)
(-0.459970911668 -0.00597773803685 0)
(-0.460029823117 -0.00401840677579 0)
(-0.459809647411 -0.00228958014717 0)
(-0.459365193192 -0.000764455586697 0)
(-0.45873822431 0.000581032353605 0)
(-0.457960545747 0.0017704902159 0)
(-0.457056573536 0.00282503568243 0)
(-0.45604516787 0.00376383648917 0)
(-0.454941015443 0.00460384629589 0)
(-0.453755629579 0.00536008407338 0)
(-0.452498087649 0.00604575929246 0)
(-0.451175571051 0.00667249908059 0)
(-0.449793764753 0.00725053302562 0)
(-0.448357153781 0.00778888347901 0)
(-0.446869244504 0.00829553217972 0)
(-0.445332729789 0.00877757279191 0)
(-0.443749611466 0.00924134436048 0)
(-0.44212128932 0.00969254843476 0)
(-0.44044862264 0.0101363497316 0)
(-0.438731968497 0.0105774615293 0)
(-0.436971198244 0.0110202161174 0)
(-0.435165694422 0.0114686204232 0)
(-0.433314324504 0.011926396188 0)
(-0.431415396683 0.0123970030398 0)
(-0.429466580655 0.0128836417085 0)
(-0.427464821475 0.0133892318001 0)
(-0.425406174989 0.0139163575419 0)
(-0.423285708194 0.0144671653523 0)
(-0.421097148172 0.0150432029365 0)
(-0.418832969095 0.0156451501894 0)
(-0.416483469204 0.016272453043 0)
(-0.414038062635 0.0169226848355 0)
(-0.411482074071 0.01759086261 0)
(-0.408803892794 0.0182679900046 0)
(-0.405981370354 0.0189403981517 0)
(-0.403015198489 0.0195864206095 0)
(-0.399866076449 0.0201790064091 0)
(-0.396602058754 0.0206768111844 0)
(-0.393103710045 0.0210457932153 0)
(-0.389700717938 0.0212273368065 0)
(-0.385739692787 0.0212573451876 0)
(-0.424911438171 -0.0266687189424 0)
(-0.432041487522 -0.0258559698989 0)
(-0.438135640398 -0.0233640213253 0)
(-0.443244582024 -0.0208610753034 0)
(-0.447293536855 -0.017998132174 0)
(-0.450404177031 -0.0152365596287 0)
(-0.452692152039 -0.0125561782923 0)
(-0.454298320083 -0.0100851515326 0)
(-0.455342970466 -0.00782310507923 0)
(-0.455932343359 -0.00579052438788 0)
(-0.456151884161 -0.00397349593424 0)
(-0.45607065856 -0.0023599415686 0)
(-0.4557430335 -0.000929748178991 0)
(-0.45521196291 0.000336338604879 0)
(-0.454511262024 0.00145819784443 0)
(-0.45366770489 0.00245420053408 0)
(-0.452702573575 0.0033414338188 0)
(-0.45163288712 0.00413528936988 0)
(-0.450472319095 0.00484959437155 0)
(-0.44923189812 0.00549664268594 0)
(-0.447920535512 0.00608734672445 0)
(-0.446545427035 0.00663136959149 0)
(-0.445112358906 0.00713727550004 0)
(-0.443625942233 0.00761266707267 0)
(-0.442089792619 0.00806431544161 0)
(-0.440506667284 0.00849827629572 0)
(-0.438878568381 0.00891999292812 0)
(-0.437206818529 0.00933438503633 0)
(-0.435492112973 0.00974592355714 0)
(-0.433734550425 0.0101586911816 0)
(-0.431933645469 0.0105764280824 0)
(-0.430088320149 0.0110025617804 0)
(-0.428196880928 0.0114402190169 0)
(-0.42625696675 0.0118922167093 0)
(-0.424265496626 0.0123610260095 0)
(-0.422218553828 0.0128487037415 0)
(-0.420111343068 0.01335677518 0)
(-0.417937938021 0.0138860628558 0)
(-0.415691453997 0.0144364142603 0)
(-0.413363349522 0.0150063576248 0)
(-0.410944760631 0.0155925230646 0)
(-0.408423885263 0.0161890982139 0)
(-0.405792588382 0.0167866493696 0)
(-0.403034681539 0.017371852816 0)
(-0.400155388903 0.0179250354743 0)
(-0.397125953642 0.0184230719367 0)
(-0.394012168761 0.018832818812 0)
(-0.390712652463 0.0191289600449 0)
(-0.387520073536 0.0192698329204 0)
(-0.383839179727 0.0192860725092 0)
(-0.422119477754 -0.0234078807045 0)
(-0.428440332736 -0.0228342110494 0)
(-0.434001962171 -0.0208429784397 0)
(-0.438804140541 -0.0187884586137 0)
(-0.442740663205 -0.0163804617334 0)
(-0.445870895077 -0.014003800068 0)
(-0.448263686869 -0.0116562349988 0)
(-0.450020703524 -0.00945711232503 0)
(-0.451236081798 -0.00741877026343 0)
(-0.451998755002 -0.0055677420543 0)
(-0.452384027762 -0.00389927768178 0)
(-0.45245551103 -0.00240774034824 0)
(-0.452265218726 -0.00107889264283 0)
(-0.45185564509 0.000102124646629 0)
(-0.451261250028 0.00115164781859 0)
(-0.45051004318 0.00208535086007 0)
(-0.449624808692 0.00291821196371 0)
(-0.448624137648 0.00366399199745 0)
(-0.447523228718 0.00433523686191 0)
(-0.446334524127 0.00494322744327 0)
(-0.445068204523 0.00549806265102 0)
(-0.443732578044 0.00600874275483 0)
(-0.442334385563 0.00648328169927 0)
(-0.440879041538 0.00692881600004 0)
(-0.439370824097 0.00735171276841 0)
(-0.437813024946 0.00775766855117 0)
(-0.436208066776 0.00815179850444 0)
(-0.434557593738 0.00853871368896 0)
(-0.432862539318 0.00892258595755 0)
(-0.431123173894 0.00930719949353 0)
(-0.429339135227 0.0096959880481 0)
(-0.427509440406 0.0100920564624 0)
(-0.425632485968 0.010498184061 0)
(-0.423706024337 0.010916806993 0)
(-0.421727144505 0.0113499736392 0)
(-0.419692202019 0.0117992683723 0)
(-0.41759682568 0.0122656890756 0)
(-0.415435749839 0.0127494771275 0)
(-0.413203049672 0.0132498590039 0)
(-0.410891621955 0.0137647386046 0)
(-0.408494510217 0.0142902013203 0)
(-0.406002736401 0.0148201009789 0)
(-0.403411327686 0.0153451584169 0)
(-0.400709016856 0.0158529494809 0)
(-0.397904358853 0.0163261796888 0)
(-0.394976043582 0.0167454431226 0)
(-0.391986880672 0.0170845303995 0)
(-0.388847242319 0.0173244788109 0)
(-0.385821104561 0.0174356630927 0)
(-0.382355029504 0.0174433209104 0)
(-0.419660061321 -0.0205258107587 0)
(-0.425319951413 -0.0201122565752 0)
(-0.430416181794 -0.0185057755531 0)
(-0.434925871436 -0.0168166991547 0)
(-0.438730567742 -0.0147961537024 0)
(-0.441847412249 -0.0127621876019 0)
(-0.444310248183 -0.0107211495083 0)
(-0.446188223041 -0.00878081606899 0)
(-0.447551960402 -0.00696104759537 0)
(-0.448473443812 -0.00529159038742 0)
(-0.449017078351 -0.00377447709152 0)
(-0.44923980203 -0.00240911102061 0)
(-0.449190002227 -0.0011862058937 0)
(-0.448908537844 -9.47731862892e-05 0)
(-0.448429506983 0.00087827184122 0)
(-0.447781319332 0.00174604279494 0)
(-0.44698758219 0.00252145311923 0)
(-0.446067911442 0.00321662217651 0)
(-0.44503859222 0.00384277282274 0)
(-0.443913129765 0.00441011525717 0)
(-0.442702695282 0.00492787025446 0)
(-0.441416489708 0.00540430934621 0)
(-0.440062038835 0.00584683233361 0)
(-0.438645433681 0.00626204979836 0)
(-0.437171526123 0.00665587024592 0)
(-0.435644088036 0.00703358251786 0)
(-0.434065940239 0.00739993166443 0)
(-0.432439056005 0.00775918527046 0)
(-0.430764643102 0.00811518900481 0)
(-0.429043206669 0.00847140996327 0)
(-0.427274596317 0.00883096646916 0)
(-0.425458036728 0.00919664268167 0)
(-0.423592148721 0.00957088549327 0)
(-0.421674951171 0.00995578094081 0)
(-0.419703870723 0.010353004733 0)
(-0.417675711514 0.0107637432633 0)
(-0.41558670284 0.0111885727772 0)
(-0.413432401155 0.0116272984873 0)
(-0.411207969174 0.0120787206802 0)
(-0.408907793726 0.012540370799 0)
(-0.406526771369 0.013008105584 0)
(-0.404058464994 0.0134758090116 0)
(-0.401500585431 0.0139347369531 0)
(-0.398845735748 0.0143736609978 0)
(-0.396104794019 0.0147777138954 0)
(-0.393261545956 0.0151308207821 0)
(-0.390375658475 0.0154124033477 0)
(-0.387365161149 0.015608152274 0)
(-0.384471940524 0.015696872315 0)
(-0.381173507459 0.0156991111696 0)
(-0.417592902402 -0.0179411400726 0)
(-0.422722701819 -0.0176357105412 0)
(-0.427424502611 -0.0163286799798 0)
(-0.431669237149 -0.0149379201143 0)
(-0.435337709762 -0.0132462374967 0)
(-0.438419971562 -0.0115149187567 0)
(-0.440924766957 -0.00975320550163 0)
(-0.44289539753 -0.00805607377078 0)
(-0.444382333905 -0.00644697289095 0)
(-0.445441956228 -0.00495658681128 0)
(-0.44612789419 -0.00359159287774 0)
(-0.446489929451 -0.0023550918341 0)
(-0.446572108852 -0.00124178511126 0)
(-0.446412906262 -0.000243964070777 0)
(-0.446045373605 0.000648572465378 0)
(-0.445497735154 0.00144658353321 0)
(-0.444793941676 0.0021610228555 0)
(-0.44395425085 0.0028024081695 0)
(-0.442995734958 0.00338063987576 0)
(-0.441932732779 0.00390483516868 0)
(-0.440777234196 0.00438330221766 0)
(-0.439539208383 0.00482354407784 0)
(-0.438226880515 0.00523230574675 0)
(-0.436846965108 0.00561563303658 0)
(-0.435404861965 0.00597894054565 0)
(-0.433904820396 0.00632707873699 0)
(-0.432350076285 0.00666439724653 0)
(-0.430742965761 0.00699480081556 0)
(-0.429085018897 0.00732179605687 0)
(-0.42737703561 0.00764852725297 0)
(-0.425619147205 0.00797779958248 0)
(-0.423810863399 0.00831208800125 0)
(-0.421951112017 0.00865352931069 0)
(-0.420038263557 0.00900389491277 0)
(-0.418070166479 0.00936453958629 0)
(-0.416044151381 0.00973632373376 0)
(-0.413957112685 0.0101194993501 0)
(-0.411805467046 0.0105135637035 0)
(-0.409585462059 0.010917055732 0)
(-0.407292894931 0.0113273378167 0)
(-0.404924342204 0.0117402766676 0)
(-0.402475542687 0.0121500403836 0)