/*--------------------------------*- C++ -*----------------------------------*\
| =========                 |                                                 |
| \\      /  F ield         | OpenFOAM: The Open Source CFD Toolbox           |
|  \\    /   O peration     | Version:  2.4.0                                 |
|   \\  /    A nd           | Web:      www.OpenFOAM.org                      |
|    \\/     M anipulation  |                                                 |
\*---------------------------------------------------------------------------*/
FoamFile
{
    version     2.0;
    format      ascii;
    class       volVectorField;
    location    "900";
    object      U;
}
// * * * * * * * * * * * * * * * * * * * * * * * * * * * * * * * * * * * * * //

dimensions      [0 1 -1 0 0 0 0];

internalField   nonuniform List<vector> 
2500
(
(2.38493140941e-05 4.56753621011e-07 0)
(2.33727309719e-05 6.60496425228e-08 0)
(2.34051647414e-05 -5.47851751313e-08 0)
(2.35539929012e-05 -6.79267709079e-08 0)
(2.37239577611e-05 -5.73544399036e-08 0)
(2.3875881712e-05 -4.51290739979e-08 0)
(2.40061621359e-05 -3.57305198914e-08 0)
(2.41169201378e-05 -2.90593345606e-08 0)
(2.42116379773e-05 -2.42235030778e-08 0)
(2.42931010236e-05 -2.05336667837e-08 0)
(2.43634454568e-05 -1.75725761811e-08 0)
(2.44243002056e-05 -1.51079280201e-08 0)
(2.44769568937e-05 -1.3008417103e-08 0)
(2.45224708328e-05 -1.11944928602e-08 0)
(2.45617233629e-05 -9.6128503895e-09 0)
(2.45954591206e-05 -8.22421579591e-09 0)
(2.46243103181e-05 -6.99749869062e-09 0)
(2.46488136024e-05 -5.90687330711e-09 0)
(2.46694224885e-05 -4.93017595467e-09 0)
(2.46865168236e-05 -4.0479181318e-09 0)
(2.4700410086e-05 -3.24260902534e-09 0)
(2.47113549868e-05 -2.49824798486e-09 0)
(2.47195476809e-05 -1.7999218172e-09 0)
(2.47251307845e-05 -1.13346568139e-09 0)
(2.47281953357e-05 -4.85165893357e-10 0)
(2.47287817771e-05 1.58514934094e-10 0)
(2.47268799994e-05 8.11202249853e-10 0)
(2.47224284465e-05 1.48687851729e-09 0)
(2.47153122391e-05 2.20016730123e-09 0)
(2.47053602378e-05 2.96664654378e-09 0)
(2.46923409148e-05 3.8032082548e-09 0)
(2.46759568446e-05 4.72848579095e-09 0)
(2.46558375475e-05 5.76337783539e-09 0)
(2.46315303106e-05 6.93171610299e-09 0)
(2.46024884547e-05 8.26115187392e-09 0)
(2.45680562647e-05 9.78440989622e-09 0)
(2.45274493434e-05 1.15412281308e-08 0)
(2.44797282767e-05 1.35817103868e-08 0)
(2.44237615752e-05 1.59728035714e-08 0)
(2.43581703221e-05 1.88117309129e-08 0)
(2.42812384157e-05 2.22546210849e-08 0)
(2.41907643957e-05 2.65749803377e-08 0)
(2.40838028757e-05 3.22741317574e-08 0)
(2.39563282478e-05 4.02417154046e-08 0)
(2.38027953049e-05 5.18644427108e-08 0)
(2.36172620637e-05 6.84333933506e-08 0)
(2.33964202264e-05 8.80199550629e-08 0)
(2.31660688529e-05 9.31946778865e-08 0)
(2.30052607305e-05 5.0129149671e-09 0)
(2.32800370423e-05 -3.41386612292e-07 0)
(8.56283119197e-05 1.26994159706e-06 0)
(8.51273430599e-05 2.52577860223e-07 0)
(8.51670652641e-05 -2.19581381908e-07 0)
(8.5439726004e-05 -3.45089269303e-07 0)
(8.58146684812e-05 -3.49575624646e-07 0)
(8.62045159126e-05 -3.18275179446e-07 0)
(8.65753370521e-05 -2.80513519404e-07 0)
(8.69133976112e-05 -2.44937474324e-07 0)
(8.72156390127e-05 -2.13409066175e-07 0)
(8.7483085658e-05 -1.85850884523e-07 0)
(8.77183733376e-05 -1.61768336898e-07 0)
(8.79245565384e-05 -1.40661733798e-07 0)
(8.81046509868e-05 -1.22103813459e-07 0)
(8.82614502046e-05 -1.05736777008e-07 0)
(8.83974683345e-05 -9.1256941089e-08 0)
(8.85149318495e-05 -7.84021066127e-08 0)
(8.86157910619e-05 -6.69425800283e-08 0)
(8.87017380769e-05 -5.66746712296e-08 0)
(8.87742257497e-05 -4.7415672685e-08 0)
(8.8834485272e-05 -3.89997645804e-08 0)
(8.88835414474e-05 -3.12745538374e-08 0)
(8.8922225319e-05 -2.40980724098e-08 0)
(8.89511840871e-05 -1.73361207008e-08 0)
(8.89708883521e-05 -1.08598561977e-08 0)
(8.89816367315e-05 -4.54354468376e-09 0)
(8.89835578821e-05 1.73760140171e-09 0)
(8.89766099115e-05 8.10957476572e-09 0)
(8.89605771061e-05 1.47017860607e-08 0)
(8.89350638326e-05 2.16494194794e-08 0)
(8.8899485388e-05 2.90960199972e-08 0)
(8.88530554893e-05 3.71964193357e-08 0)
(8.87947699804e-05 4.61201320428e-08 0)
(8.87233862208e-05 5.60553869899e-08 0)
(8.86373974863e-05 6.72140181757e-08 0)
(8.85350015909e-05 7.98375194414e-08 0)
(8.84140628666e-05 9.42047181955e-08 0)
(8.82720667099e-05 1.10641812918e-07 0)
(8.81060664874e-05 1.29536081156e-07 0)
(8.79126242776e-05 1.5135565096e-07 0)
(8.76877524433e-05 1.76679337881e-07 0)
(8.74268752414e-05 2.06241687209e-07 0)
(8.71248711064e-05 2.40991716579e-07 0)
(8.67763231328e-05 2.8212602446e-07 0)
(8.63764010885e-05 3.30900905187e-07 0)
(8.59229556942e-05 3.87538751652e-07 0)
(8.54226126186e-05 4.47109362013e-07 0)
(8.49007123771e-05 4.86404983191e-07 0)
(8.44348941791e-05 4.2802453817e-07 0)
(8.4155957801e-05 4.87791764752e-08 0)
(8.43708189239e-05 -8.73205374997e-07 0)
(0.00014601273061 1.9098716167e-06 0)
(0.00014558385652 4.56444646678e-07 0)
(0.000145562675907 -3.81405523918e-07 0)
(0.000145800948413 -7.0508565825e-07 0)
(0.000146200235298 -7.89307591366e-07 0)
(0.000146664910838 -7.70695661356e-07 0)
(0.000147141346046 -7.12860474412e-07 0)
(0.000147599432522 -6.43127412934e-07 0)
(0.000148025007091 -5.72906802121e-07 0)
(0.000148412411877 -5.06667505702e-07 0)
(0.000148760592242 -4.4593974611e-07 0)
(0.000149070777138 -3.91010196972e-07 0)
(0.000149345263952 -3.41647379431e-07 0)
(0.000149586764287 -2.97412868831e-07 0)
(0.00014979806255 -2.57797886738e-07 0)
(0.000149981837498 -2.2228381312e-07 0)
(0.00015014057146 -1.90368426375e-07 0)
(0.000150276506314 -1.61576025382e-07 0)
(0.000150391624543 -1.35459741021e-07 0)
(0.000150487643487 -1.11600024096e-07 0)
(0.000150566016154 -8.96012908696e-08 0)
(0.000150627934816 -6.9087722847e-08 0)
(0.000150674335183 -4.96987119608e-08 0)
(0.000150705899852 -3.10841659595e-08 0)
(0.000150723060211 -1.28997433007e-08 0)
(0.000150725996304 5.19799119247e-09 0)
(0.000150714634291 2.35565510399e-08 0)
(0.000150688641248 4.25327419537e-08 0)
(0.000150647417104 6.24982147403e-08 0)
(0.000150590083561 8.38454865441e-08 0)
(0.000150515469879 1.06994577772e-07 0)
(0.00015042209552 1.32400416128e-07 0)
(0.000150308149827 1.6056115915e-07 0)
(0.000150171469237 1.92027543905e-07 0)
(0.000150009513222 2.27413267226e-07 0)
(0.000149819341384 2.67406134343e-07 0)
(0.000149597596528 3.12779128249e-07 0)
(0.000149340503161 3.643992212e-07 0)
(0.000149043899838 4.23228601222e-07 0)
(0.000148703342117 4.90305257547e-07 0)
(0.000148314347178 5.66669954628e-07 0)
(0.000147872927062 6.5315605003e-07 0)
(0.000147376670178 7.49825657739e-07 0)
(0.000146826944422 8.54521735843e-07 0)
(0.000146232864815 9.59190880153e-07 0)
(0.000145619130659 1.04111981849e-06 0)
(0.000145035488046 1.0419518416e-06 0)
(0.000144577304253 8.2712322421e-07 0)
(0.000144355975866 1.11139193594e-07 0)
(0.000144528187025 -1.24652282409e-06 0)
(0.000204660743482 2.40531718401e-06 0)
(0.00020430903799 6.72415902824e-07 0)
(0.000204232546601 -4.60820654132e-07 0)
(0.000204383987384 -1.00123967561e-06 0)
(0.000204713030046 -1.20978394607e-06 0)
(0.000205143706441 -1.24507340654e-06 0)
(0.000205620668934 -1.19626392487e-06 0)
(0.000206105609026 -1.10972205377e-06 0)
(0.000206575396857 -1.0092004835e-06 0)
(0.000207016993003 -9.06565464709e-07 0)
(0.00020742391584 -8.07584896477e-07 0)
(0.00020779366302 -7.14876954819e-07 0)
(0.000208126082055 -6.29428719346e-07 0)
(0.000208422344056 -5.51378048252e-07 0)
(0.000208684315463 -4.8042336144e-07 0)
(0.000208914173229 -4.16041340586e-07 0)
(0.000209114169922 -3.57603908466e-07 0)
(0.000209286490198 -3.04441011066e-07 0)
(0.000209433163298 -2.55873602017e-07 0)
(0.000209556009943 -2.11229898545e-07 0)
(0.000209656610263 -1.69852095566e-07 0)
(0.000209736284475 -1.3109755339e-07 0)
(0.000209796081031 -9.43367339755e-08 0)
(0.00020983676887 -5.89491769375e-08 0)
(0.000209858831607 -2.43182407047e-08 0)
(0.00020986246225 1.01749891155e-08 0)
(0.000209847557545 4.51584138592e-08 0)
(0.000209813711456 8.12761586742e-08 0)
(0.000209760207542 1.19196279901e-07 0)
(0.000209686010334 1.59618905622e-07 0)
(0.000209589756134 2.03284728995e-07 0)
(0.000209469744132 2.50983670586e-07 0)
(0.000209323929475 3.0356330738e-07 0)
(0.000209149920995 3.61936245867e-07 0)
(0.000208944988156 4.2708484435e-07 0)
(0.000208706084747 5.00060234598e-07 0)
(0.000208429901851 5.81969852051e-07 0)
(0.000208112971153 6.73942412579e-07 0)
(0.00020775185403 7.77048826495e-07 0)
(0.000207343476836 8.92136541738e-07 0)
(0.000206885712475 1.01949105517e-06 0)
(0.000206378378406 1.15814901001e-06 0)
(0.000205824896611 1.3044957038e-06 0)
(0.000205235029952 1.44942041161e-06 0)
(0.000204628886606 1.5725051896e-06 0)
(0.000204042893768 1.63077262182e-06 0)
(0.000203533701219 1.53672801502e-06 0)
(0.000203182992586 1.12669012161e-06 0)
(0.000203056260312 1.20393416697e-07 0)
(0.000203204793749 -1.52765362899e-06 0)
(0.000261214640558 2.77504674005e-06 0)
(0.00026093250914 8.81702401872e-07 0)
(0.0002608207311 -4.6694965029e-07 0)
(0.000260887510235 -1.20554783552e-06 0)
(0.000261119645288 -1.55558777791e-06 0)
(0.00026146790533 -1.67428040106e-06 0)
(0.000261886301222 -1.66316937724e-06 0)
(0.000262336970202 -1.5826780912e-06 0)
(0.000262792982654 -1.46805572993e-06 0)
(0.000263236401924 -1.33941479905e-06 0)
(0.000263656128357 -1.20805133153e-06 0)
(0.000264045834896 -1.08013398881e-06 0)
(0.000264402406606 -9.58855302821e-07 0)
(0.000264724813003 -8.45672897011e-07 0)
(0.000265013330496 -7.41030709604e-07 0)
(0.00026526901398 -6.44780723068e-07 0)
(0.000265493341363 -5.56431725228e-07 0)
(0.000265687974991 -4.752968175e-07 0)
(0.000265854601586 -4.00580872699e-07 0)
(0.000265994824663 -3.31431838565e-07 0)
(0.000266110092013 -2.66969966033e-07 0)
(0.000266201646546 -2.06303355848e-07 0)
(0.000266270492667 -1.48534912114e-07 0)
(0.000266317372887 -9.27638118226e-08 0)
(0.000266342751158 -3.80834280374e-08 0)
(0.000266346800574 1.64230699583e-08 0)
(0.000266329394028 7.16886270205e-08 0)
(0.000266290097023 1.28669149308e-07 0)
(0.000266228162485 1.8835080216e-07 0)
(0.000266142527991 2.51757256658e-07 0)
(0.000266031816516 3.19956218008e-07 0)
(0.000265894342693 3.94064247829e-07 0)
(0.00026572812781 4.75248286962e-07 0)
(0.000265530928589 5.64721228103e-07 0)
(0.000265300287474 6.63727081376e-07 0)
(0.000265033616309 7.73508134073e-07 0)
(0.000264728331534 8.95241007622e-07 0)
(0.000264382068697 1.02991881041e-06 0)
(0.000263993018366 1.1781391253e-06 0)
(0.000263560446752 1.3397261287e-06 0)
(0.000263085491276 1.51305744039e-06 0)
(0.000262572356531 1.69386426196e-06 0)
(0.000262030039401 1.87308508976e-06 0)
(0.000261474714622 2.03306809128e-06 0)
(0.000260932493554 2.14086648572e-06 0)
(0.000260442208807 2.13715919471e-06 0)
(0.00026005401954 1.91811103761e-06 0)
(0.000259824415271 1.31635891121e-06 0)
(0.000259778783364 8.83578186391e-08 0)
(0.000259907951306 -1.73237348197e-06 0)
(0.000315454809973 3.04431728346e-06 0)
(0.000315235849489 1.07414363095e-06 0)
(0.000315108741024 -4.17855864117e-07 0)
(0.000315109750656 -1.31810634819e-06 0)
(0.000315249312072 -1.80425193648e-06 0)
(0.000315502269917 -2.01921957863e-06 0)
(0.000315836043549 -2.06583465025e-06 0)
(0.000316218689911 -2.01193370804e-06 0)
(0.000316624117436 -1.90110786125e-06 0)
(0.000317032689506 -1.76068868494e-06 0)
(0.000317430597372 -1.60754442072e-06 0)
(0.000317808665093 -1.45188135415e-06 0)
(0.000318161190665 -1.29969961131e-06 0)
(0.000318484964473 -1.15434582496e-06 0)
(0.000318778506543 -1.01749195017e-06 0)
(0.00031904149594 -8.8975159468e-07 0)
(0.000319274354065 -7.71069362811e-07 0)
(0.000319477944063 -6.60967578451e-07 0)
(0.000319653355487 -5.58702936103e-07 0)
(0.000319801750516 -4.63365784792e-07 0)
(0.000319924254237 -3.73942532404e-07 0)
(0.000320021876363 -2.89354103928e-07 0)
(0.00032009545533 -2.0847870957e-07 0)
(0.00032014561841 -1.30164259216e-07 0)
(0.000320172753395 -5.32339359661e-08 0)
(0.000320176988881 2.35126897269e-08 0)
(0.000320158181269 1.01301302261e-07 0)
(0.000320115907568 1.81385909457e-07 0)
(0.000320049463891 2.65052149519e-07 0)
(0.00031995787039 3.53619563237e-07 0)
(0.000319839884342 4.48441251707e-07 0)
(0.000319694024287 5.50898716667e-07 0)
(0.000319518609695 6.62388612343e-07 0)
(0.000319311822762 7.8429635513e-07 0)
(0.000319071801977 9.17948643073e-07 0)
(0.000318796781227 1.06453218496e-06 0)
(0.000318485293987 1.22495814924e-06 0)
(0.00031813646986 1.39963902076e-06 0)
(0.000317750460285 1.5881233415e-06 0)
(0.000317329040949 1.7884990722e-06 0)
(0.000316876444692 1.99641926936e-06 0)
(0.000316400474308 2.20351578371e-06 0)
(0.000315913887822 2.39482670004e-06 0)
(0.000315435944449 2.54470519789e-06 0)
(0.000314993554503 2.61041275514e-06 0)
(0.000314621229721 2.52291683618e-06 0)
(0.000314356541558 2.17414302466e-06 0)
(0.000314231091188 1.40858010789e-06 0)
(0.000314242649043 2.74657631616e-08 0)
(0.000314351114514 -1.87975856046e-06 0)
(0.000367243570792 3.23003689421e-06 0)
(0.000367082457852 1.24101988352e-06 0)
(0.000366955175739 -3.35578944328e-07 0)
(0.000366911022788 -1.35681277914e-06 0)
(0.000366973631314 -1.96089333382e-06 0)
(0.000367136294915 -2.27139867207e-06 0)
(0.000367379617593 -2.38529749552e-06 0)
(0.00036767987775 -2.37207611744e-06 0)
(0.000368014807301 -2.2799596621e-06 0)
(0.000368365736117 -2.14150273849e-06 0)
(0.000368718164209 -1.9782855998e-06 0)
(0.000369061434352 -1.80434999763e-06 0)
(0.000369388099686 -1.62863558902e-06 0)
(0.000369693234021 -1.45665073945e-06 0)
(0.000369973809067 -1.29160401374e-06 0)
(0.000370228175908 -1.13516389637e-06 0)
(0.0003704556531 -9.87967539859e-07 0)
(0.000370656208224 -8.49961162898e-07 0)
(0.000370830215841 -7.20627831014e-07 0)
(0.00037097827551 -5.99139757915e-07 0)
(0.000371101075981 -4.8445982979e-07 0)
(0.000371199294463 -3.75408805078e-07 0)
(0.000371273522431 -2.70709221582e-07 0)
(0.000371324211568 -1.69013492722e-07 0)
(0.000371351635212 -6.8921351678e-08 0)
(0.000371355862112 3.10096740814e-08 0)
(0.000371336740453 1.32257992204e-07 0)
(0.000371293891201 2.36333608242e-07 0)
(0.000371226710725 3.44773623774e-07 0)
(0.000371134383714 4.59135330072e-07 0)
(0.000371015908452 5.80984177471e-07 0)
(0.000370870137857 7.11873001872e-07 0)
(0.000370695841285 8.5330738247e-07 0)
(0.000370491794174 1.00668961714e-06 0)
(0.000370256905216 1.17323008074e-06 0)
(0.000369990393959 1.35380895713e-06 0)
(0.000369692035592 1.54876241166e-06 0)
(0.000369362493584 1.75755358082e-06 0)
(0.000369003763651 1.97826788924e-06 0)
(0.000368619751389 2.20684121851e-06 0)
(0.00036821699374 2.43588426001e-06 0)
(0.000367805501668 2.65290735378e-06 0)
(0.000367399616051 2.83767284273e-06 0)
(0.000367018627949 2.95836235309e-06 0)
(0.000366686560036 2.96619560402e-06 0)
(0.00036643026443 2.7886971287e-06 0)
(0.000366273768293 2.32191989079e-06 0)
(0.000366228652071 1.42919150754e-06 0)
(0.000366276107954 -4.63435747416e-08 0)
(0.000366362042099 -1.97933234178e-06 0)
(0.000416492421483 3.34526537327e-06 0)
(0.000416384110289 1.37774567026e-06 0)
(0.000416266730394 -2.37192451503e-07 0)
(0.000416194692087 -1.34080989986e-06 0)
(0.000416197873747 -2.03892943602e-06 0)
(0.000416282489462 -2.43525903157e-06 0)
(0.000416440257348 -2.617220555e-06 0)
(0.000416655881883 -2.65185896833e-06 0)
(0.000416912322722 -2.58874834648e-06 0)
(0.000417193615266 -2.46344126234e-06 0)
(0.000417486182773 -2.30090858846e-06 0)
(0.000417779188204 -2.11835200814e-06 0)
(0.000418064398502 -1.92738729125e-06 0)
(0.000418335828601 -1.73566052067e-06 0)
(0.000418589323163 -1.54801784039e-06 0)
(0.000418822153478 -1.36733854411e-06 0)
(0.000419032663389 -1.19512327999e-06 0)
(0.000419219973848 -1.03190715214e-06 0)
(0.000419383744168 -8.77548995723e-07 0)
(0.000419523983175 -7.31433511982e-07 0)
(0.000419640902133 -5.9261221116e-07 0)
(0.000419734801741 -4.5990140638e-07 0)
(0.000419805986496 -3.31950110089e-07 0)
(0.000419854701072 -2.07286948247e-07 0)
(0.000419881084547 -8.43526799106e-08 0)
(0.000419885139547 3.84767803091e-08 0)
(0.000419866714407 1.62872989416e-07 0)
(0.000419825497461 2.90539988762e-07 0)
(0.000419761023554 4.23198616443e-07 0)
(0.000419672693845 5.625668406e-07 0)
(0.000419559811089 7.10332211384e-07 0)
(0.00041942163375 8.68111424752e-07 0)
(0.000419257453745 1.03739019045e-06 0)
(0.000419066704179 1.21943386021e-06 0)
(0.000418849105198 1.41515519401e-06 0)
(0.000418604857811 1.62491964752e-06 0)
(0.000418334896784 1.84825986465e-06 0)
(0.000418041213547 2.08345867107e-06 0)
(0.000417727256504 2.32694261538e-06 0)
(0.00041739840585 2.57240534322e-06 0)
(0.000417062496466 2.80955165373e-06 0)
(0.00041673031701 3.02232523856e-06 0)
(0.00041641592774 3.1864604298e-06 0)
(0.00041613650929 3.2662390143e-06 0)
(0.000415911232505 3.21040011766e-06 0)
(0.000415758447778 2.94774243323e-06 0)
(0.000415690221299 2.38313858906e-06 0)
(0.000415703663381 1.40037720176e-06 0)
(0.000415771243957 -1.22193099069e-07 0)
(0.000415833969972 -2.0384423048e-06 0)
(0.000463141638692 3.4000584523e-06 0)
(0.000463081282265 1.48238243691e-06 0)
(0.00046297987524 -1.35061259742e-07 0)
(0.000462892993823 -1.28709328621e-06 0)
(0.000462852500561 -2.0541115314e-06 0)
(0.000462873084116 -2.52163384008e-06 0)
(0.000462955047003 -2.76622197645e-06 0)
(0.000463090632335 -2.85001136517e-06 0)
(0.000463268313475 -2.82145237308e-06 0)
(0.000463475711161 -2.71710196237e-06 0)
(0.000463701241772 -2.56390943244e-06 0)
(0.000463934909377 -2.38133358235e-06 0)
(0.000464168557751 -2.18314806669e-06 0)
(0.000464395817999 -1.97888286266e-06 0)
(0.000464611906152 -1.7749367333e-06 0)
(0.00046481336398 -1.57541522631e-06 0)
(0.000464997795048 -1.38275258525e-06 0)
(0.000465163622083 -1.19816867096e-06 0)
(0.000465309876412 -1.02200250588e-06 0)
(0.000465436021891 -8.5395469239e-07 0)
(0.000465541811547 -6.93263094123e-07 0)
(0.000465627173373 -5.38829936741e-07 0)
(0.000465692121331 -3.89313791079e-07 0)
(0.00046573668785 -2.43196447075e-07 0)
(0.000465760874762 -9.88322380414e-08 0)
(0.000465764620329 4.5514320737e-08 0)
(0.000465747780868 1.91637796566e-07 0)
(0.000465710126272 3.41363823849e-07 0)
(0.000465651349611 4.96519797754e-07 0)
(0.00046557109184 6.58900020113e-07 0)
(0.000465468983568 8.30220352108e-07 0)
(0.000465344706807 1.01205621412e-06 0)
(0.000465198080592 1.20575587727e-06 0)
(0.000465029175272 1.41231823112e-06 0)
(0.000464838460982 1.63222027348e-06 0)
(0.000464626995865 1.86517411695e-06 0)
(0.000464396658492 2.10978593431e-06 0)
(0.000464150425326 2.36307965033e-06 0)
(0.000463892686174 2.61983628667e-06 0)
(0.000463629575234 2.8716867018e-06 0)
(0.000463369268006 3.10588331953e-06 0)
(0.00046312214904 3.30367393105e-06 0)
(0.000462900686491 3.43821494721e-06 0)
(0.000462718749562 3.47204212267e-06 0)
(0.000462590007145 3.35422613454e-06 0)
(0.000462524882973 3.01785403426e-06 0)
(0.00046252592029 2.37860392336e-06 0)
(0.000462580502073 1.33955147421e-06 0)
(0.000462657412357 -1.92919739565e-07 0)
(0.000462697320124 -2.06261940895e-06 0)
(0.000507149294891 3.40251159187e-06 0)
(0.000507132298423 1.55491465183e-06 0)
(0.000507050112186 -3.73740010005e-08 0)
(0.000506957665255 -1.209034616e-06 0)
(0.000506886370048 -2.02097252101e-06 0)
(0.000506856143937 -2.54301498992e-06 0)
(0.000506873538689 -2.84096485054e-06 0)
(0.000506937034534 -2.97083294508e-06 0)
(0.00050704025093 -2.9783060667e-06 0)
(0.00050717463965 -2.89937860637e-06 0)
(0.000507331182677 -2.76170201669e-06 0)
(0.000507501410984 -2.58605374801e-06 0)
(0.000507677914535 -2.3877297707e-06 0)
(0.000507854527451 -2.17774768014e-06 0)
(0.000508026317587 -1.96383704981e-06 0)
(0.000508189471547 -1.75122764936e-06 0)
(0.000508341133048 -1.54326330548e-06 0)
(0.000508479229596 -1.34187278582e-06 0)
(0.000508602306868 -1.1479273109e-06 0)
(0.000508709380465 -9.61510080877e-07 0)
(0.000508799808845 -7.82118574735e-07 0)
(0.000508873188013 -6.08816103552e-07 0)
(0.000508929266925 -4.40345541606e-07 0)
(0.000508967881905 -2.75215334999e-07 0)
(0.00050898890837 -1.11765769344e-07 0)
(0.000508992228398 5.17780378153e-08 0)
(0.000508977713161 2.17260957522e-07 0)
(0.000508945219834 3.86555571444e-07 0)
(0.00050889460318 5.61518028101e-07 0)
(0.000508825742704 7.43936990243e-07 0)
(0.00050873858689 9.35469941372e-07 0)
(0.000508633216636 1.13755991902e-06 0)
(0.000508509930503 1.35132395531e-06 0)
(0.000508369354538 1.57740199724e-06 0)
(0.000508212579132 1.81575171128e-06 0)
(0.000508041324042 2.06537019781e-06 0)
(0.000507858129758 2.32391823985e-06 0)
(0.000507666567663 2.58721649157e-06 0)
(0.000507471451435 2.84857668831e-06 0)
(0.000507279015571 3.0979264753e-06 0)
(0.000507097001492 3.32068703872e-06 0)
(0.000506934553803 3.4963767763e-06 0)
(0.000506801782976 3.59694783354e-06 0)
(0.000506708782686 3.58495270697e-06 0)
(0.000506663888211 3.41174537765e-06 0)
(0.000506670793407 3.01632244735e-06 0)
(0.00050672494416 2.32546107491e-06 0)
(0.000506807577134 1.25917914825e-06 0)
(0.000506886786671 -2.54424877169e-07 0)
(0.00050690498425 -2.05644714777e-06 0)
(0.00054848484852 3.35927731798e-06 0)
(0.000548506927104 1.59646068059e-06 0)
(0.000548445334337 5.07312480571e-08 0)
(0.00054835364549 -1.11664601638e-06 0)
(0.000548261546409 -1.9518050308e-06 0)
(0.000548191948491 -2.51148016934e-06 0)
(0.000548155743735 -2.85154697252e-06 0)
(0.000548156314219 -3.0215267793e-06 0)
(0.000548191749505 -3.06339652608e-06 0)
(0.000548257177542 -3.01147720813e-06 0)
(0.000548346339737 -2.89308748714e-06 0)
(0.000548452676942 -2.72947018066e-06 0)
(0.000548569980389 -2.53679640466e-06 0)
(0.000548692739321 -2.32711287268e-06 0)
(0.000548816281378 -2.10917623654e-06 0)
(0.000548936784025 -1.88915515623e-06 0)
(0.000549051211962 -1.67120381294e-06 0)
(0.000549157217792 -1.45792076826e-06 0)
(0.000549253029681 -1.2507108104e-06 0)
(0.000549337340298 -1.05006743789e-06 0)
(0.000549409205019 -8.55791981566e-07 0)
(0.000549467953374 -6.67163094864e-07 0)
(0.000549513115343 -4.83068101488e-07 0)
(0.000549544362782 -3.02105679994e-07 0)
(0.000549561465646 -1.22667763983e-07 0)
(0.000549564262528 5.69926889836e-08 0)
(0.00054955264513 2.38702223508e-07 0)
(0.000549526556568 4.24310329198e-07 0)
(0.000549486003763 6.15630518881e-07 0)
(0.000549431084545 8.14373488406e-07 0)
(0.000549362030431 1.02206615766e-06 0)
(0.000549279266263 1.23994933556e-06 0)
(0.000549183487835 1.46884521083e-06 0)
(0.000549075758212 1.70898384602e-06 0)
(0.000548957622263 1.95977528939e-06 0)
(0.000548831236663 2.21951088979e-06 0)
(0.000548699508622 2.48497415286e-06 0)
(0.000548566229995 2.75093853013e-06 0)
(0.000548436183282 3.00952803076e-06 0)
(0.000548315180939 3.24941861202e-06 0)
(0.000548209978985 3.45486713094e-06 0)
(0.000548127978147 3.60457702653e-06 0)
(0.000548076601015 3.67044942997e-06 0)
(0.00054806219051 3.61635088108e-06 0)
(0.000548088338331 3.39711427197e-06 0)
(0.000548153351217 2.95828303544e-06 0)
(0.000548247637948 2.23710263914e-06 0)
(0.000548348809313 1.16790970554e-06 0)
(0.000548425924301 -3.04605423489e-07 0)
(0.000548423916198 -2.02377799847e-06 0)
(0.000587125362456 3.27594212931e-06 0)
(0.000587182560542 1.60878630818e-06 0)
(0.000587141728647 1.26280946426e-07 0)
(0.000587054929696 -1.01714241006e-06 0)
(0.000586949546054 -1.85647574393e-06 0)
(0.000586850009238 -2.43772845552e-06 0)
(0.000586770094991 -2.80798115838e-06 0)
(0.000586716897645 -3.01041955052e-06 0)
(0.000586692210993 -3.08287677183e-06 0)
(0.000586694468944 -3.057290409e-06 0)
(0.000586720112517 -2.9598755683e-06 0)
(0.000586764639002 -2.81163143152e-06 0)
(0.000586823303238 -2.62901287028e-06 0)
(0.000586891559569 -2.42463573498e-06 0)
(0.000586965307828 -2.20794630222e-06 0)
(0.000587041004712 -1.98581842446e-06 0)
(0.000587115687295 -1.76306556388e-06 0)
(0.000587186943672 -1.54286798878e-06 0)
(0.000587252855133 -1.32712241155e-06 0)
(0.000587311926301 -1.11672433461e-06 0)
(0.000587363013699 -9.11794063957e-07 0)
(0.000587405259145 -7.11856867436e-07 0)
(0.000587438031635 -5.15986762471e-07 0)
(0.000587460879677 -3.22922280632e-07 0)
(0.000587473494987 -1.3116153257e-07 0)
(0.00058747568798 6.09569548773e-08 0)
(0.000587467375245 2.55181736859e-07 0)
(0.00058744857918 4.53278727898e-07 0)
(0.000587419440066 6.56958735728e-07 0)
(0.000587380240904 8.67796478771e-07 0)
(0.000587331445403 1.08713477773e-06 0)
(0.000587273749337 1.31596673671e-06 0)
(0.000587208145029 1.55478757651e-06 0)
(0.000587135997797 1.80340631229e-06 0)
(0.000587059131487 2.06070583099e-06 0)
(0.000586979917443 2.32433824847e-06 0)
(0.000586901356934 2.59034115047e-06 0)
(0.000586827140633 2.85266011019e-06 0)
(0.000586761659747 3.1025649122e-06 0)
(0.000586709931182 3.32795316785e-06 0)
(0.000586677384776 3.51254797831e-06 0)
(0.000586669442531 3.63502087941e-06 0)
(0.000586690812236 3.66810857451e-06 0)
(0.000586744390437 3.57785888001e-06 0)
(0.000586829773375 3.32320049041e-06 0)
(0.000586941128229 2.85623763673e-06 0)
(0.000587065436538 2.12363226472e-06 0)
(0.000587178373592 1.07156824941e-06 0)
(0.000587250784042 -3.42652242928e-07 0)
(0.000587230252841 -1.96791566473e-06 0)
(0.000623053157046 3.15728071157e-06 0)
(0.000623141839118 1.59398486016e-06 0)
(0.000623121179352 1.87779231643e-07 0)
(0.000623041822065 -9.15574248013e-07 0)
(0.00062292867483 -1.74266703502e-06 0)
(0.000622806753648 -2.33080621663e-06 0)
(0.000622691656548 -2.71946520025e-06 0)
(0.000622593208357 -2.94592893494e-06 0)
(0.000622516172451 -3.0437989692e-06 0)
(0.000622461830404 -3.04223466724e-06 0)
(0.000622429113429 -2.96581817496e-06 0)
(0.000622415556021 -2.83475634273e-06 0)
(0.000622417985292 -2.66528671651e-06 0)
(0.000622433003035 -2.47017208454e-06 0)
(0.00062245729611 -2.25921341885e-06 0)
(0.000622487819473 -2.03973750495e-06 0)
(0.000622521888333 -1.81703673953e-06 0)
(0.000622557209372 -1.59475195844e-06 0)
(0.000622591873641 -1.37519756374e-06 0)
(0.000622624327555 -1.15963291674e-06 0)
(0.000622653333486 -9.48486297483e-07 0)
(0.00062267792767 -7.41538610985e-07 0)
(0.000622697380467 -5.38074093355e-07 0)
(0.000622711162144 -3.37004931608e-07 0)
(0.00062271891611 -1.36976246193e-07 0)
(0.000622720440758 6.35425672765e-08 0)
(0.000622715680604 2.66174480675e-07 0)
(0.000622704727134 4.72553982224e-07 0)
(0.000622687829615 6.84243248794e-07 0)
(0.000622665415919 9.02639628925e-07 0)
(0.000622638123216 1.12886832026e-06 0)
(0.000622606837875 1.36365349758e-06 0)
(0.000622572743226 1.60716037745e-06 0)
(0.000622537372519 1.85879985091e-06 0)
(0.000622502662532 2.11698652592e-06 0)
(0.000622471000359 2.37884056139e-06 0)
(0.000622445251819 2.63982397981e-06 0)
(0.000622428754341 2.89330391534e-06 0)
(0.000622425249955 3.13003952379e-06 0)
(0.000622438725227 3.33759760806e-06 0)
(0.000622473116169 3.49971609345e-06 0)
(0.000622531826008 3.59565742527e-06 0)
(0.000622617008107 3.59962501492e-06 0)
(0.000622728546895 3.4803658606e-06 0)
(0.000622862796104 3.20111842663e-06 0)
(0.000623010838553 2.7202074274e-06 0)
(0.000623157422174 1.99253613334e-06 0)
(0.00062327737592 9.73987025534e-07 0)
(0.000623343655893 -3.68550195123e-07 0)
(0.00062330632814 -1.8917211581e-06 0)
(0.000656254311227 3.00744231716e-06 0)
(0.000656371135325 1.55428937506e-06 0)
(0.000656369594563 2.34727095664e-07 0)
(0.000656299107936 -8.15364544593e-07 0)
(0.000656182161576 -1.61623052159e-06 0)
(0.000656043786855 -2.19814191381e-06 0)
(0.000655900657107 -2.59408162292e-06 0)
(0.000655764555544 -2.83599346497e-06 0)
(0.000655642568447 -2.95337419606e-06 0)
(0.000655538357 -2.97243890627e-06 0)
(0.000655453059591 -2.91580611629e-06 0)
(0.000655386123766 -2.80249231177e-06 0)
(0.000655335945601 -2.64811773257e-06 0)
(0.00065530035299 -2.46522852341e-06 0)
(0.000655276946972 -2.26367164506e-06 0)
(0.00065526333056 -2.05097832303e-06 0)
(0.000655257251275 -1.8327291731e-06 0)
(0.000655256681129 -1.61288625202e-06 0)
(0.000655259853357 -1.39408574502e-06 0)
(0.000655265270958 -1.17789040424e-06 0)
(0.000655271698276 -9.6500413011e-07 0)
(0.000655278143781 -7.55452882254e-07 0)
(0.000655283839736 -5.48736986257e-07 0)
(0.000655288222685 -3.4396020911e-07 0)
(0.000655290917354 -1.39941007088e-07 0)
(0.000655291725651 6.46887451328e-08 0)
(0.000655290621826 2.71392341389e-07 0)
(0.000655287754368 4.81638979187e-07 0)
(0.000655283454846 6.96811419121e-07 0)
(0.000655278253542 9.18105170221e-07 0)
(0.000655272901213 1.14641351733e-06 0)
(0.000655268395737 1.38219234011e-06 0)
(0.000655266011379 1.62529827421e-06 0)
(0.000655267327098 1.87479346268e-06 0)
(0.000655274248313 2.1287100824e-06 0)
(0.000655289013916 2.3837683208e-06 0)
(0.000655314176735 2.63504291211e-06 0)
(0.000655352541243 2.87557634255e-06 0)
(0.000655407037076 3.09594219803e-06 0)
(0.000655480501255 3.28377096396e-06 0)
(0.000655575337791 3.42326382595e-06 0)
(0.000655693018809 3.49473942263e-06 0)
(0.000655833403242 3.47428220948e-06 0)
(0.000655993832037 3.33359606108e-06 0)
(0.000656168097191 3.04018508043e-06 0)
(0.0006563450407 2.55808187008e-06 0)
(0.000656508029078 1.8492925443e-06 0)
(0.000656631718296 8.77610221039e-07 0)
(0.000656691219765 -3.82760935951e-07 0)
(0.000656638790914 -1.79769689958e-06 0)
(0.000686717672907 2.83008848103e-06 0)
(0.000686859556677 1.49196464655e-06 0)
(0.000686875803397 2.67291063251e-07 0)
(0.00068681482373 -7.18734043168e-07 0)
(0.000686696852304 -1.48154456469e-06 0)
(0.00068654660975 -2.04571952578e-06 0)
(0.000686381335186 -2.43874152759e-06 0)
(0.000686214183095 -2.68780203617e-06 0)
(0.000686054022432 -2.81853907463e-06 0)
(0.000685906459012 -2.85421208462e-06 0)
(0.00068577453226 -2.81529729397e-06 0)
(0.000685659420293 -2.71935125513e-06 0)
(0.000685561009807 -2.58107393358e-06 0)
(0.000685478355362 -2.41249709461e-06 0)
(0.000685410026857 -2.22324416725e-06 0)
(0.000685354362841 -2.02082086356e-06 0)
(0.000685309646691 -1.81090910616e-06 0)
(0.00068527422322 -1.59764692349e-06 0)
(0.000685246571059 -1.3838846704e-06 0)
(0.000685225343615 -1.17141330979e-06 0)
(0.000685209388827 -9.61164153301e-07 0)
(0.000685197755484 -7.53381756491e-07 0)
(0.000685189691955 -5.47773080809e-07 0)