/*--------------------------------*- C++ -*----------------------------------*\
| =========                 |                                                 |
| \\      /  F ield         | OpenFOAM: The Open Source CFD Toolbox           |
|  \\    /   O peration     | Version:  2.4.0                                 |
|   \\  /    A nd           | Web:      www.OpenFOAM.org                      |
|    \\/     M anipulation  |                                                 |
\*---------------------------------------------------------------------------*/
FoamFile
{
    version     2.0;
    format      ascii;
    class       volVectorField;
    location    "0.7";
    object      U;
}
// * * * * * * * * * * * * * * * * * * * * * * * * * * * * * * * * * * * * * //

dimensions      [0 1 -1 0 0 0 0];

internalField   nonuniform List<vector> 
400
(
(4.22540701903e-07 -6.59194920871e-17 0)
(4.22540701758e-07 -1.7694179455e-16 0)
(4.22540701824e-07 -4.51028103754e-17 0)
(4.22540701862e-07 -1.07552855511e-16 0)
(4.22540701844e-07 -1.04083408559e-16 0)
(4.22540701955e-07 -1.17961196366e-16 0)
(4.22540702004e-07 -1.38777878078e-17 0)
(4.22540702122e-07 -1.49186218934e-16 0)
(4.22540702018e-07 -1.90819582357e-16 0)
(4.22540701966e-07 -1.49186218934e-16 0)
(4.22540701959e-07 -1.66533453694e-16 0)
(4.22540701837e-07 -1.73472347598e-16 0)
(4.22540702014e-07 -1.28369537222e-16 0)
(4.22540702105e-07 -1.04083408559e-16 0)
(4.22540702146e-07 5.89805981832e-17 0)
(4.22540702073e-07 -1.49186218934e-16 0)
(4.22540701827e-07 -3.3653635434e-16 0)
(4.22540701758e-07 -1.45716771982e-16 0)
(4.22540701862e-07 -1.11022302463e-16 0)
(4.22540701931e-07 -1.4224732503e-16 0)
(1.13175835775e-06 -3.1918911958e-16 0)
(1.13175835759e-06 -2.04697370165e-16 0)
(1.13175835763e-06 -8.32667268469e-17 0)
(1.13175835771e-06 -2.04697370165e-16 0)
(1.13175835782e-06 -2.28983498829e-16 0)
(1.13175835792e-06 -2.53269627493e-16 0)
(1.13175835794e-06 -1.97758476261e-16 0)
(1.1317583579e-06 -3.88578058619e-16 0)
(1.13175835794e-06 -4.99600361081e-16 0)
(1.131758358e-06 -4.19803081186e-16 0)
(1.13175835793e-06 -4.33680868994e-16 0)
(1.13175835787e-06 -4.16333634234e-16 0)
(1.13175835805e-06 -3.46944695195e-16 0)
(1.1317583582e-06 -3.78169717763e-16 0)
(1.13175835807e-06 -2.18575157973e-16 0)
(1.13175835778e-06 -4.47558656802e-16 0)
(1.13175835769e-06 -5.30825383649e-16 0)
(1.13175835782e-06 -4.75314232418e-16 0)
(1.1317583578e-06 -3.85108611667e-16 0)
(1.13175835776e-06 -3.40005801291e-16 0)
(3.61775141167e-07 -4.2674197509e-16 0)
(3.61775141153e-07 -4.40619762898e-16 0)
(3.61775141192e-07 -2.87964097012e-16 0)
(3.61775141313e-07 -2.25514051877e-16 0)
(3.61775141417e-07 -3.08780778724e-16 0)
(3.61775141462e-07 -3.53883589099e-16 0)
(3.61775141428e-07 -3.71230823859e-16 0)
(3.61775141417e-07 -3.08780778724e-16 0)
(3.61775141466e-07 -5.8633653488e-16 0)
(3.61775141452e-07 -4.82253126322e-16 0)
(3.61775141386e-07 -5.16947595841e-16 0)
(3.61775141445e-07 -5.27355936697e-16 0)
(3.61775141431e-07 -6.00214322688e-16 0)
(3.61775141653e-07 -5.82867087928e-16 0)
(3.61775141764e-07 -5.82867087928e-16 0)
(3.61775141469e-07 -6.14092110496e-16 0)
(3.61775141337e-07 -5.41233724505e-16 0)
(3.61775141459e-07 -5.41233724505e-16 0)
(3.617751415e-07 -5.48172618409e-16 0)
(3.61775141362e-07 -4.6143644461e-16 0)
(-4.27695347428e-06 -5.6898930012e-16 0)
(-4.27695347418e-06 -4.57966997658e-16 0)
(-4.27695347406e-06 -4.71844785466e-16 0)
(-4.27695347405e-06 -3.95516952523e-16 0)
(-4.2769534739e-06 -4.4408920985e-16 0)
(-4.27695347393e-06 -3.71230823859e-16 0)
(-4.27695347393e-06 -3.08780778724e-16 0)
(-4.27695347391e-06 -2.94902990916e-16 0)
(-4.27695347389e-06 -4.05925293379e-16 0)
(-4.2769534739e-06 -3.88578058619e-16 0)
(-4.27695347398e-06 -3.74700270811e-16 0)
(-4.27695347402e-06 -4.37150315946e-16 0)
(-4.27695347378e-06 -5.34294830601e-16 0)
(-4.27695347368e-06 -4.68375338514e-16 0)
(-4.27695347363e-06 -6.83481049535e-16 0)
(-4.27695347376e-06 -6.73072708679e-16 0)
(-4.27695347391e-06 -5.37764277553e-16 0)
(-4.27695347387e-06 -5.27355936697e-16 0)
(-4.27695347384e-06 -5.79397640976e-16 0)
(-4.27695347391e-06 -6.66133814775e-16 0)
(-1.6473131473e-05 -6.210310044e-16 0)
(-1.64731314729e-05 -5.23886489745e-16 0)
(-1.64731314727e-05 -5.13478148889e-16 0)
(-1.64731314726e-05 -4.51028103754e-16 0)
(-1.64731314726e-05 -4.75314232418e-16 0)
(-1.64731314726e-05 -4.82253126322e-16 0)
(-1.64731314727e-05 -3.92047505571e-16 0)
(-1.64731314727e-05 -3.98986399475e-16 0)
(-1.64731314726e-05 -3.3653635434e-16 0)
(-1.64731314726e-05 -3.67761376907e-16 0)
(-1.64731314727e-05 -3.78169717763e-16 0)
(-1.64731314727e-05 -3.57353036051e-16 0)
(-1.64731314726e-05 -4.96130914129e-16 0)
(-1.64731314727e-05 -4.4408920985e-16 0)
(-1.64731314726e-05 -6.55725473919e-16 0)
(-1.64731314726e-05 -6.14092110496e-16 0)
(-1.64731314727e-05 -6.55725473919e-16 0)
(-1.64731314728e-05 -6.07153216592e-16 0)
(-1.64731314727e-05 -6.41847686111e-16 0)
(-1.64731314728e-05 -7.70217223334e-16 0)
(-3.94341143864e-05 -6.27969898304e-16 0)
(-3.94341143864e-05 -5.8633653488e-16 0)
(-3.94341143863e-05 -4.6143644461e-16 0)
(-3.94341143862e-05 -4.96130914129e-16 0)
(-3.94341143862e-05 -5.75928194024e-16 0)
(-3.94341143862e-05 -4.92661467177e-16 0)
(-3.94341143862e-05 -4.96130914129e-16 0)
(-3.94341143863e-05 -4.4408920985e-16 0)
(-3.94341143862e-05 -4.85722573274e-16 0)
(-3.94341143862e-05 -5.44703171457e-16 0)
(-3.94341143863e-05 -4.75314232418e-16 0)
(-3.94341143863e-05 -4.85722573274e-16 0)
(-3.94341143863e-05 -4.54497550706e-16 0)
(-3.94341143863e-05 -5.16947595841e-16 0)
(-3.94341143863e-05 -4.68375338514e-16 0)
(-3.94341143864e-05 -6.07153216592e-16 0)
(-3.94341143864e-05 -6.55725473919e-16 0)
(-3.94341143864e-05 -7.04297731247e-16 0)
(-3.94341143865e-05 -6.48786580015e-16 0)
(-3.94341143865e-05 -8.08381139805e-16 0)
(-7.02161772882e-05 -5.72458747072e-16 0)
(-7.02161772882e-05 -5.62050406217e-16 0)
(-7.02161772882e-05 -5.51642065361e-16 0)
(-7.02161772882e-05 -5.16947595841e-16 0)
(-7.02161772882e-05 -5.75928194024e-16 0)
(-7.02161772883e-05 -5.93275428784e-16 0)
(-7.02161772883e-05 -5.55111512313e-16 0)
(-7.02161772882e-05 -4.7878367937e-16 0)
(-7.02161772882e-05 -5.89805981832e-16 0)
(-7.02161772883e-05 -6.76542155631e-16 0)
(-7.02161772883e-05 -5.8633653488e-16 0)
(-7.02161772882e-05 -5.65519853168e-16 0)
(-7.02161772882e-05 -6.69603261727e-16 0)
(-7.02161772882e-05 -6.45317133063e-16 0)
(-7.02161772883e-05 -6.00214322688e-16 0)
(-7.02161772884e-05 -6.41847686111e-16 0)
(-7.02161772883e-05 -6.80011602583e-16 0)
(-7.02161772884e-05 -7.35522753814e-16 0)
(-7.02161772883e-05 -7.42461647718e-16 0)
(-7.02161772882e-05 -7.77156117238e-16 0)
(-8.77622817786e-05 -7.59808882478e-16 0)
(-8.77622817787e-05 -6.07153216592e-16 0)
(-8.77622817787e-05 -6.34908792208e-16 0)
(-8.77622817787e-05 -5.48172618409e-16 0)
(-8.77622817788e-05 -6.86950496487e-16 0)
(-8.77622817787e-05 -8.15320033709e-16 0)
(-8.77622817786e-05 -7.59808882478e-16 0)
(-8.77622817787e-05 -6.24500451352e-16 0)
(-8.77622817789e-05 -6.62664367823e-16 0)
(-8.77622817789e-05 -8.81239525796e-16 0)
(-8.77622817788e-05 -8.01442245901e-16 0)
(-8.77622817788e-05 -7.59808882478e-16 0)
(-8.77622817786e-05 -8.95117313604e-16 0)
(-8.77622817786e-05 -8.39606162373e-16 0)
(-8.77622817787e-05 -8.43075609325e-16 0)
(-8.77622817788e-05 -8.60422844085e-16 0)
(-8.7762281779e-05 -7.18175519054e-16 0)
(-8.77622817789e-05 -7.32053306862e-16 0)
(-8.77622817788e-05 -6.62664367823e-16 0)
(-8.77622817787e-05 -8.04911692853e-16 0)
(-3.28873794182e-05 -7.91033905045e-16 0)
(-3.28873794184e-05 -7.07767178199e-16 0)
(-3.28873794185e-05 -6.93889390391e-16 0)
(-3.28873794186e-05 -7.91033905045e-16 0)
(-3.28873794186e-05 -8.18789480661e-16 0)
(-3.28873794185e-05 -7.56339435526e-16 0)
(-3.28873794183e-05 -8.39606162373e-16 0)
(-3.28873794185e-05 -7.2858385991e-16 0)
(-3.28873794186e-05 -8.60422844085e-16 0)
(-3.28873794186e-05 -8.43075609325e-16 0)
(-3.28873794187e-05 -8.15320033709e-16 0)
(-3.28873794185e-05 -7.32053306862e-16 0)
(-3.28873794185e-05 -1.07205910815e-15 0)
(-3.28873794185e-05 -9.26342336172e-16 0)
(-3.28873794185e-05 -8.32667268469e-16 0)
(-3.28873794185e-05 -7.52869988574e-16 0)
(-3.28873794186e-05 -7.66747776382e-16 0)
(-3.28873794186e-05 -7.38992200766e-16 0)
(-3.28873794186e-05 -5.79397640976e-16 0)
(-3.28873794185e-05 -7.52869988574e-16 0)
(0.000219188769173 -6.52256026967e-16 0)
(0.000219188769172 -6.34908792208e-16 0)
(0.000219188769172 -6.45317133063e-16 0)
(0.000219188769172 -8.7083118494e-16 0)
(0.000219188769172 -8.53483950181e-16 0)
(0.000219188769172 -7.97972798949e-16 0)
(0.000219188769173 -9.33281230076e-16 0)
(0.000219188769172 -7.4593109467e-16 0)
(0.000219188769172 -7.21644966006e-16 0)
(0.000219188769172 -8.18789480661e-16 0)
(0.000219188769172 -7.87564458094e-16 0)
(0.000219188769172 -7.91033905045e-16 0)
(0.000219188769172 -9.85322934355e-16 0)
(0.000219188769172 -8.98586760556e-16 0)
(0.000219188769172 -7.8062556419e-16 0)
(0.000219188769172 -6.80011602583e-16 0)
(0.000219188769172 -8.29197821517e-16 0)
(0.000219188769172 -7.21644966006e-16 0)
(0.000219188769172 -7.52869988574e-16 0)
(0.000219188769172 -6.90419943439e-16 0)
(0.00088895539698 -7.25114412958e-16 0)
(0.00088895539698 -7.91033905045e-16 0)
(0.000888955396979 -8.32667268469e-16 0)
(0.000888955396979 -7.42461647718e-16 0)
(0.00088895539698 -9.02056207508e-16 0)
(0.00088895539698 -8.7083118494e-16 0)
(0.00088895539698 -7.94503351997e-16 0)
(0.00088895539698 -6.66133814775e-16 0)
(0.00088895539698 -7.14706072102e-16 0)
(0.000888955396979 -7.97972798949e-16 0)
(0.00088895539698 -7.87564458094e-16 0)
(0.00088895539698 -8.39606162373e-16 0)
(0.00088895539698 -9.99200722163e-16 0)
(0.00088895539698 -8.60422844085e-16 0)
(0.00088895539698 -7.42461647718e-16 0)
(0.00088895539698 -7.4593109467e-16 0)
(0.00088895539698 -7.8062556419e-16 0)
(0.00088895539698 -6.80011602583e-16 0)
(0.00088895539698 -8.04911692853e-16 0)
(0.00088895539698 -7.42461647718e-16 0)
(0.00231545163603 -7.32053306862e-16 0)
(0.00231545163603 -7.21644966006e-16 0)
(0.00231545163603 -8.01442245901e-16 0)
(0.00231545163603 -8.01442245901e-16 0)
(0.00231545163603 -8.63892291037e-16 0)
(0.00231545163603 -8.01442245901e-16 0)
(0.00231545163603 -7.25114412958e-16 0)
(0.00231545163603 -6.80011602583e-16 0)
(0.00231545163603 -8.39606162373e-16 0)
(0.00231545163603 -6.62664367823e-16 0)
(0.00231545163603 -7.49400541622e-16 0)
(0.00231545163603 -8.08381139805e-16 0)
(0.00231545163603 -8.50014503229e-16 0)
(0.00231545163603 -7.87564458094e-16 0)
(0.00231545163603 -7.52869988574e-16 0)
(0.00231545163603 -7.32053306862e-16 0)
(0.00231545163603 -6.17561557448e-16 0)
(0.00231545163603 -5.55111512313e-16 0)
(0.00231545163603 -6.07153216592e-16 0)
(0.00231545163603 -6.31439345256e-16 0)
(0.00495804324143 -5.82867087928e-16 0)
(0.00495804324143 -5.44703171457e-16 0)
(0.00495804324143 -6.07153216592e-16 0)
(0.00495804324143 -7.42461647718e-16 0)
(0.00495804324143 -7.70217223334e-16 0)
(0.00495804324143 -7.38992200766e-16 0)
(0.00495804324144 -7.56339435526e-16 0)
(0.00495804324144 -7.66747776382e-16 0)
(0.00495804324144 -6.90419943439e-16 0)
(0.00495804324143 -5.82867087928e-16 0)
(0.00495804324143 -6.83481049535e-16 0)
(0.00495804324143 -7.14706072102e-16 0)
(0.00495804324143 -6.34908792208e-16 0)
(0.00495804324143 -6.31439345256e-16 0)
(0.00495804324143 -5.6898930012e-16 0)
(0.00495804324143 -6.07153216592e-16 0)
(0.00495804324143 -5.48172618409e-16 0)
(0.00495804324143 -5.10008701937e-16 0)
(0.00495804324143 -5.41233724505e-16 0)
(0.00495804324143 -4.96130914129e-16 0)
(0.00936353456664 -5.44703171457e-16 0)
(0.00936353456664 -5.06539254985e-16 0)
(0.00936353456664 -6.17561557448e-16 0)
(0.00936353456664 -7.97972798949e-16 0)
(0.00936353456664 -6.80011602583e-16 0)
(0.00936353456664 -6.00214322688e-16 0)
(0.00936353456664 -6.17561557448e-16 0)
(0.00936353456664 -6.59194920871e-16 0)
(0.00936353456664 -4.85722573274e-16 0)
(0.00936353456664 -5.06539254985e-16 0)
(0.00936353456664 -5.41233724505e-16 0)
(0.00936353456664 -6.14092110496e-16 0)
(0.00936353456664 -6.76542155631e-16 0)
(0.00936353456664 -5.34294830601e-16 0)
(0.00936353456664 -5.03069808033e-16 0)
(0.00936353456664 -6.00214322688e-16 0)
(0.00936353456664 -4.4408920985e-16 0)
(0.00936353456664 -4.99600361081e-16 0)
(0.00936353456664 -5.10008701937e-16 0)
(0.00936353456664 -5.23886489745e-16 0)
(0.0160914472277 -6.10622663544e-16 0)
(0.0160914472277 -4.99600361081e-16 0)
(0.0160914472277 -5.82867087928e-16 0)
(0.0160914472277 -7.8062556419e-16 0)
(0.0160914472277 -6.41847686111e-16 0)
(0.0160914472277 -5.48172618409e-16 0)
(0.0160914472277 -4.23272528138e-16 0)
(0.0160914472277 -5.37764277553e-16 0)
(0.0160914472277 -3.85108611667e-16 0)
(0.0160914472277 -3.29597460436e-16 0)
(0.0160914472277 -4.40619762898e-16 0)
(0.0160914472277 -4.68375338514e-16 0)
(0.0160914472277 -4.89192020225e-16 0)
(0.0160914472277 -3.98986399475e-16 0)
(0.0160914472277 -3.64291929955e-16 0)
(0.0160914472277 -4.71844785466e-16 0)
(0.0160914472277 -3.95516952523e-16 0)
(0.0160914472277 -2.98372437868e-16 0)
(0.0160914472277 -3.50414142147e-16 0)
(0.0160914472277 -4.85722573274e-16 0)
(0.0256028876699 -4.30211422042e-16 0)
(0.0256028876699 -4.12864187283e-16 0)
(0.0256028876699 -6.69603261727e-16 0)
(0.0256028876699 -8.08381139805e-16 0)
(0.0256028876699 -6.48786580015e-16 0)
(0.0256028876699 -5.20417042793e-16 0)
(0.0256028876699 -3.50414142147e-16 0)
(0.0256028876699 -4.16333634234e-16 0)
(0.0256028876699 -3.64291929955e-16 0)
(0.0256028876699 -2.94902990916e-16 0)
(0.0256028876699 -3.1918911958e-16 0)
(0.0256028876699 -3.53883589099e-16 0)
(0.0256028876699 -1.70002900646e-16 0)
(0.0256028876699 -1.45716771982e-16 0)
(0.0256028876699 -1.5959455979e-16 0)
(0.0256028876699 -1.63064006742e-16 0)
(0.0256028876699 -1.14491749414e-16 0)
(0.0256028876699 -1.35308431126e-16 0)
(0.0256028876699 -2.70616862252e-16 0)
(0.0256028876699 -4.12864187283e-16 0)
(0.0381337428564 -4.02455846427e-16 0)
(0.0381337428564 -5.37764277553e-16 0)
(0.0381337428564 -6.10622663544e-16 0)
(0.0381337428564 -6.31439345256e-16 0)
(0.0381337428564 -6.31439345256e-16 0)
(0.0381337428564 -4.75314232418e-16 0)
(0.0381337428564 -3.85108611667e-16 0)
(0.0381337428564 -3.85108611667e-16 0)
(0.0381337428564 -2.32452945781e-16 0)
(0.0381337428564 -2.08166817117e-16 0)
(0.0381337428564 -1.56125112838e-16 0)
(0.0381337428564 -2.74086309204e-16 0)
(0.0381337428564 -1.11022302463e-16 0)
(0.0381337428564 -1.00613961607e-16 0)
(0.0381337428564 -8.32667268469e-17 0)
(0.0381337428564 5.20417042793e-17 0)
(0.0381337428564 4.51028103754e-17 0)
(0.0381337428564 3.81639164715e-17 0)
(0.0381337428564 -1.70002900646e-16 0)
(0.0381337428564 -4.37150315946e-16 0)
(0.0535853398917 -4.23272528138e-16 0)
(0.0535853398917 -3.95516952523e-16 0)
(0.0535853398917 -3.67761376907e-16 0)
(0.0535853398917 -3.67761376907e-16 0)
(0.0535853398917 -5.62050406217e-16 0)
(0.0535853398917 -3.95516952523e-16 0)
(0.0535853398917 -3.40005801291e-16 0)
(0.0535853398917 -3.1918911958e-16 0)
(0.0535853398917 -1.87350135406e-16 0)
(0.0535853398917 -3.46944695195e-17 0)
(0.0535853398917 -4.16333634234e-17 0)
(0.0535853398917 -9.02056207508e-17 0)
(0.0535853398917 -9.02056207508e-17 0)
(0.0535853398917 7.6327832943e-17 0)
(0.0535853398917 -4.85722573274e-17 0)
(0.0535853398917 -4.16333634234e-17 0)
(0.0535853398917 -4.16333634234e-17 0)
(0.0535853398917 -7.6327832943e-17 0)
(0.0535853398917 -1.94289029309e-16 0)
(0.0535853398917 -3.95516952523e-16 0)
(0.0714588564629 -2.15105711021e-16 0)
(0.0714588564629 -1.31838984174e-16 0)
(0.0714588564629 -2.08166817117e-16 0)
(0.0714588564629 -2.98372437868e-16 0)
(0.0714588564629 -3.95516952523e-16 0)
(0.0714588564629 -2.98372437868e-16 0)
(0.0714588564629 -2.49800180541e-16 0)
(0.0714588564629 -7.6327832943e-17 0)
(0.0714588564629 -9.02056207508e-17 0)
(0.0714588564629 -2.77555756156e-17 0)
(0.0714588564629 1.87350135406e-16 0)
(0.0714588564629 5.55111512313e-17 0)
(0.0714588564629 5.55111512313e-17 0)
(0.0714588564629 1.2490009027e-16 0)
(0.0714588564629 0 0)
(0.0714588564629 -1.52655665886e-16 0)
(0.0714588564629 -1.52655665886e-16 0)
(0.0714588564629 -2.56739074445e-16 0)
(0.0714588564629 -1.11022302463e-16 0)
(0.0714588564629 -1.80411241502e-16 0)
(0.0909792730824 -2.08166817117e-17 0)
(0.0909792730824 6.24500451352e-17 0)
(0.0909792730824 -7.6327832943e-17 0)
(0.0909792730824 -1.04083408559e-16 0)
(0.0909792730824 -1.11022302463e-16 0)
(0.0909792730824 -4.85722573274e-17 0)
(0.0909792730824 -4.85722573274e-17 0)
(0.0909792730824 9.71445146547e-17 0)
(0.0909792730824 9.71445146547e-17 0)
(0.0909792730824 -2.77555756156e-17 0)
(0.0909792730824 6.93889390391e-17 0)
(0.0909792730824 9.02056207508e-17 0)
(0.0909792730824 1.2490009027e-16 0)
(0.0909792730824 1.5959455979e-16 0)
(0.0909792730824 6.93889390391e-17 0)
(0.0909792730824 -4.16333634234e-17 0)
(0.0909792730824 -2.08166817117e-17 0)
(0.0909792730824 -6.24500451352e-17 0)
(0.0909792730824 3.46944695195e-17 0)
(0.0909792730824 6.93889390391e-18 0)
)
;

boundaryField
{
    top
    {
        type            fixedValue;
        value           uniform (0.1 0 0);
    }
    bottom
    {
        type            fixedValue;
        value           uniform (0 0 0);
    }
    left
    {
        type            cyclic;
    }
    right
    {
        type            cyclic;
    }
    frontAndBack
    {
        type            empty;
    }
}


// ************************************************************************* //
