/*--------------------------------*- C++ -*----------------------------------*\
| =========                 |                                                 |
| \\      /  F ield         | OpenFOAM: The Open Source CFD Toolbox           |
|  \\    /   O peration     | Version:  2.4.0                                 |
|   \\  /    A nd           | Web:      www.OpenFOAM.org                      |
|    \\/     M anipulation  |                                                 |
\*---------------------------------------------------------------------------*/
FoamFile
{
    version     2.0;
    format      ascii;
    class       volVectorField;
    location    "0.1";
    object      U;
}
// * * * * * * * * * * * * * * * * * * * * * * * * * * * * * * * * * * * * * //

dimensions      [0 1 -1 0 0 0 0];

internalField   nonuniform List<vector> 
100
(
(3.13638004457e-14 1.93976779084e-14 0)
(-2.42167397246e-14 9.20444276353e-15 0)
(2.27387553231e-14 -1.89258331229e-14 0)
(-1.05821601482e-13 -6.76889100326e-15 0)
(-4.02955446788e-13 6.54344634033e-13 0)
(9.62882898414e-12 -3.05998629213e-12 0)
(-5.05515143595e-11 -6.4140637241e-12 0)
(-1.97996098824e-11 1.80335465439e-10 0)
(2.73485055746e-09 -8.1592093244e-10 0)
(-2.6428721414e-08 -1.89479438327e-09 0)
(-3.8569841765e-14 1.77799094892e-12 0)
(-5.89840676302e-14 -1.36279876273e-14 0)
(-7.81041897826e-14 1.81454851145e-12 0)
(2.486517936e-13 3.12389003554e-14 0)
(-7.16836312531e-13 7.66831043109e-13 0)
(-5.89352178176e-12 4.69567093546e-12 0)
(5.02604451139e-11 1.31072271099e-11 0)
(-8.07252285356e-11 -2.72824811187e-10 0)
(-1.02362398892e-09 1.31985275996e-09 0)
(6.83173676813e-09 3.72011211655e-09 0)
(-8.89236600948e-13 5.17792059187e-12 0)
(-2.93199492464e-13 1.90627374997e-12 0)
(-2.27502044962e-13 4.65238264541e-12 0)
(-1.16100878911e-12 1.91435756137e-12 0)
(-4.46150061306e-13 4.37379646357e-12 0)
(3.73108766106e-11 3.24668070207e-12 0)
(-2.3103036142e-10 6.83732584178e-12 0)
(1.50591831042e-11 -6.18964846178e-11 0)
(9.64438284722e-09 2.19598360946e-10 0)
(-8.31070536481e-08 6.83644320673e-10 0)
(-1.13435996585e-11 -6.86167826679e-10 0)
(-4.20720402855e-12 7.5736465691e-12 0)
(-2.99214125385e-12 -6.90182486827e-10 0)
(-3.51133358414e-12 8.29844179279e-12 0)
(-3.39421893013e-12 -6.88325333508e-10 0)
(-5.06482355932e-12 -1.30569166558e-13 0)
(1.55897447568e-11 -7.11321455862e-10 0)
(-4.8056284622e-11 5.30933945848e-10 0)
(-2.26218963641e-10 -3.27180420864e-09 0)
(1.58313214868e-09 -6.8045446304e-09 0)
(1.49211635877e-10 -2.81956253059e-09 0)
(-1.05772126761e-11 -1.24450384934e-09 0)
(-3.27897847527e-11 -2.64441105628e-09 0)
(-3.17626028446e-11 -1.23152090838e-09 0)
(-3.48478329274e-11 -2.64639408807e-09 0)
(-4.66382937453e-11 -1.2278336114e-09 0)
(5.30811644319e-11 -2.64182139547e-09 0)
(-2.9796422132e-11 -1.39460950803e-09 0)
(-3.83065152168e-09 -2.14511638272e-09 0)
(3.29607476517e-08 5.59345508609e-10 0)
(-3.27739731537e-10 4.3325755252e-09 0)
(1.73660078389e-11 -6.90786478964e-09 0)
(-1.62902198913e-10 5.52308954587e-09 0)
(-2.11975182795e-10 -6.67851857727e-09 0)
(-1.6413093826e-10 5.57710999077e-09 0)
(-2.03494851818e-10 -6.68204050646e-09 0)
(-2.25830864759e-10 5.56215821446e-09 0)
(-1.31017474051e-10 -6.31209626482e-09 0)
(1.20215079539e-09 3.86187673101e-09 0)
(-9.37967744708e-09 -1.11090302643e-08 0)
(-3.03835206646e-09 2.57847831301e-10 0)
(7.5023863269e-11 6.49332773867e-09 0)
(-1.06911724178e-09 -1.42881127527e-09 0)
(-8.72675139903e-10 6.58343563662e-09 0)
(-1.28501583003e-09 -1.16461722736e-09 0)
(-9.74039166313e-10 6.56912960123e-09 0)
(-9.71695072911e-10 -1.19459237133e-09 0)
(-9.08689908471e-10 6.64305936245e-09 0)
(-1.40751763554e-08 -1.6967583466e-09 0)
(1.07371204091e-07 3.31953382698e-09 0)
(-4.28614678505e-09 -2.70921506065e-08 0)
(-8.67962095376e-09 1.98830871411e-08 0)
(-4.91279791846e-09 -3.3180676231e-08 0)
(-6.24605623375e-09 1.85892806267e-08 0)
(-5.32040254501e-09 -3.31322872954e-08 0)
(-6.41106588327e-09 1.87387962683e-08 0)
(-5.45902145848e-09 -3.30777419646e-08 0)
(-6.05447008164e-09 1.75140428697e-08 0)
(-7.36806977256e-09 -2.97009201088e-08 0)
(1.02328995507e-08 3.11903606705e-08 0)
(-3.09927742346e-08 8.87063125517e-08 0)
(-2.28834202032e-08 -3.73444368112e-08 0)
(-3.46265347672e-08 9.54199054247e-08 0)
(-1.98298889598e-08 -3.70972230542e-08 0)
(-3.39001266513e-08 9.42550406691e-08 0)
(-1.99722275542e-08 -3.70181306101e-08 0)
(-3.42506855692e-08 9.42213566323e-08 0)
(-2.06250535208e-08 -3.35847450206e-08 0)
(-2.84096535634e-08 7.9316573317e-08 0)
(-5.02374929376e-08 -4.96293119658e-08 0)
(-2.85701183934e-08 -8.52752685637e-08 0)
(-1.30284601106e-07 1.5438321136e-08 0)
(-3.11710505265e-08 -7.39898108302e-08 0)
(-1.33186464564e-07 1.69473905207e-08 0)
(-2.91589808439e-08 -7.44605311155e-08 0)
(-1.33189954233e-07 1.63996052731e-08 0)
(-2.69921199952e-08 -7.47164727245e-08 0)
(-1.34816756947e-07 1.69958862574e-08 0)
(-8.4529999457e-08 -7.28955762926e-08 0)
(2.77259747715e-07 1.57050784984e-08 0)
)
;

boundaryField
{
    top
    {
        type            fixedValue;
        value           nonuniform 0();
    }
    bottom
    {
        type            fixedValue;
        value           uniform (0 0 0);
    }
    left
    {
        type            cyclic;
    }
    right
    {
        type            cyclic;
    }
    frontAndBack
    {
        type            empty;
    }
    procBoundary1to0
    {
        type            processor;
        value           nonuniform List<vector> 10((1.48145384848e-14 3.85975973405e-14 0) (1.47104550763e-15 -2.68743360898e-14 0) (-7.74033614981e-15 2.95943825002e-15 0) (1.3579345981e-12 6.01949046164e-15 0) (6.81743897426e-12 1.07315892281e-11 0) (2.72875055251e-11 -3.40761369719e-10 0) (4.77729579562e-10 -5.77137222341e-09 0) (3.53812620665e-09 -4.4606941418e-09 0) (1.73211963139e-08 3.40173041205e-08 0) (1.39251592812e-07 -2.50211031344e-08 0));
    }
    procBoundary1to0throughright
    {
        type            processorCyclic;
        value           nonuniform List<vector> 10((9.0014981559e-11 -1.58117394141e-10 0) (-5.45938336695e-10 2.99483507706e-10 0) (1.14237042551e-09 8.09063925615e-11 0) (2.54890310221e-10 -5.5020110337e-10 0) (-5.78039293411e-10 -1.72758380487e-10 0) (1.12021950174e-09 -4.94465978146e-09 0) (-6.5934557665e-10 1.03006065988e-09 0) (-5.88950894438e-10 2.56309347894e-08 0) (3.41489405299e-08 -7.21314496445e-08 0) (1.39557797049e-07 9.75084041953e-08 0));
    }
    procBoundary1to3
    {
        type            processor;
        value           nonuniform List<vector> 10((4.89284519589e-07 1.44676738914e-07 0) (5.97234163355e-07 -1.21310749368e-08 0) (4.77151046037e-07 1.51227760956e-07 0) (5.98703498948e-07 -1.29684716318e-08 0) (4.78396651819e-07 1.50954629238e-07 0) (5.98986729905e-07 -1.2921048075e-08 0) (4.7835650143e-07 1.51064638443e-07 0) (5.98413109669e-07 -1.22052729921e-08 0) (4.80009209123e-07 1.45511799054e-07 0) (6.01542689236e-07 -2.28559905031e-08 0));
    }
}


// ************************************************************************* //
