/*--------------------------------*- C++ -*----------------------------------*\
| =========                 |                                                 |
| \\      /  F ield         | OpenFOAM: The Open Source CFD Toolbox           |
|  \\    /   O peration     | Version:  2.4.0                                 |
|   \\  /    A nd           | Web:      www.OpenFOAM.org                      |
|    \\/     M anipulation  |                                                 |
\*---------------------------------------------------------------------------*/
FoamFile
{
    version     2.0;
    format      ascii;
    class       volScalarField;
    location    "300";
    object      rho;
}
// * * * * * * * * * * * * * * * * * * * * * * * * * * * * * * * * * * * * * //

dimensions      [1 -3 0 0 0 0 0];

internalField   nonuniform List<scalar> 
2500
(
1.00001773574
1.00001825772
1.00001826491
1.00001816495
1.00001795279
1.00001767609
1.00001735637
1.00001701042
1.00001664749
1.00001627324
1.00001589102
1.00001550302
1.00001511069
1.00001471509
1.00001431695
1.00001391686
1.00001351525
1.00001311247
1.00001270876
1.00001230435
1.00001189938
1.00001149399
1.00001108829
1.00001068235
1.00001027625
1.00000987005
1.00000946381
1.00000905758
1.00000865144
1.00000824546
1.00000783972
1.00000743434
1.00000702946
1.00000662525
1.00000622196
1.00000581989
1.00000541943
1.00000502112
1.00000462567
1.00000423407
1.0000038477
1.00000346868
1.00000310031
1.00000274827
1.00000242221
1.00000214028
1.00000192905
1.00000184645
1.00000191959
1.00000255749
1.00001818725
1.00001840217
1.00001825056
1.00001806289
1.00001781366
1.00001753042
1.00001721854
1.00001688586
1.0000165373
1.00001617673
1.00001580692
1.00001542994
1.00001504735
1.00001466031
1.00001426975
1.00001387637
1.00001348073
1.00001308328
1.00001268438
1.00001228432
1.00001188336
1.00001148168
1.00001107947
1.00001067688
1.00001027405
1.00000987109
1.00000946815
1.00000906535
1.00000866281
1.00000826069
1.00000785917
1.00000745844
1.00000705875
1.00000666039
1.00000626372
1.00000586921
1.00000547743
1.00000508913
1.00000470527
1.00000432712
1.00000395637
1.00000359531
1.00000324708
1.00000291611
1.00000260829
1.00000233292
1.00000209845
1.00000193475
1.00000182972
1.00000208812
1.00001859895
1.00001857378
1.00001834436
1.0000181085
1.0000178323
1.00001753334
1.000017213
1.00001687611
1.00001652578
1.00001616478
1.00001579529
1.00001541902
1.00001503731
1.00001465125
1.00001426166
1.00001386923
1.00001347451
1.00001307792
1.00001267983
1.00001228055
1.00001188031
1.00001147932
1.00001107778
1.00001067584
1.00001027365
1.00000987134
1.00000946904
1.00000906691
1.00000866507
1.00000826369
1.00000786295
1.00000746306
1.00000706428
1.0000066669
1.00000627129
1.00000587791
1.00000548734
1.00000510029
1.00000471766
1.00000434063
1.00000397069
1.00000360977
1.00000326037
1.00000292574
1.00000260973
1.00000231807
1.0000020541
1.00000183579
1.00000163815
1.00000163416
1.00001890738
1.0000187299
1.00001844293
1.00001816409
1.00001786141
1.00001754485
1.00001721363
1.00001687026
1.00001651637
1.00001615367
1.00001578363
1.0000154075
1.00001502635
1.00001464107
1.00001425239
1.00001386092
1.00001346716
1.00001307153
1.00001267437
1.00001227597
1.0000118766
1.00001147645
1.00001107572
1.00001067458
1.00001027317
1.00000987165
1.00000947016
1.00000906884
1.00000866786
1.00000826737
1.00000786756
1.00000746867
1.00000707093
1.00000667465
1.0000062802
1.00000588801
1.00000549862
1.00000511269
1.00000473102
1.0000043546
1.00000398463
1.00000362258
1.00000327016
1.00000292943
1.0000026025
1.00000229236
1.00000199935
1.00000173285
1.00000146683
1.00000129661
1.00001914927
1.00001887334
1.00001854674
1.00001823366
1.00001790833
1.00001757509
1.00001723215
1.00001688058
1.0000165211
1.00001615468
1.00001578224
1.00001540464
1.00001502266
1.00001463699
1.00001424823
1.00001385687
1.00001346336
1.00001306806
1.0000126713
1.00001227334
1.00001187442
1.00001147474
1.00001107448
1.00001067382
1.0000102729
1.00000987187
1.00000947088
1.00000907006
1.00000866959
1.00000826961
1.00000787032
1.00000747192
1.00000707467
1.00000667883
1.00000628476
1.00000589283
1.00000550351
1.00000511737
1.00000473505
1.00000435733
1.0000039851
1.00000361937
1.00000326124
1.0000029119
1.00000257235
1.00000224391
1.00000192548
1.00000162057
1.00000130742
1.00000103197
1.00001933953
1.00001899892
1.00001864447
1.00001830417
1.0000179595
1.00001761117
1.00001725702
1.00001689713
1.00001653158
1.0000161608
1.00001578528
1.00001540555
1.00001502215
1.00001463557
1.00001424627
1.00001385464
1.00001346106
1.00001306582
1.00001266922
1.00001227149
1.00001187285
1.00001147348
1.00001107357
1.00001067326
1.00001027271
1.00000987205
1.00000947143
1.00000907099
1.00000867088
1.00000827126
1.0000078723
1.0000074742
1.00000707718
1.0000066815
1.00000628744
1.00000589535
1.00000550561
1.00000511868
1.00000473504
1.00000435527
1.00000397997
1.00000360978
1.00000324532
1.00000288713
1.00000253547
1.00000219052
1.0000018505
1.00000151527
1.00000116898
1.00000082561
1.00001949295
1.00001910875
1.00001873488
1.00001837356
1.00001801289
1.00001765141
1.00001728697
1.00001691903
1.0000165473
1.0000161718
1.00001579274
1.00001541039
1.00001502506
1.0000146371
1.00001424683
1.00001385455
1.00001346055
1.00001306507
1.00001266837
1.00001227063
1.00001187206
1.00001147282
1.00001107307
1.00001067295
1.0000102726
1.00000987216
1.00000947176
1.00000907153
1.00000867161
1.00000827214
1.00000787329
1.00000747523
1.00000707817
1.00000668231
1.0000062879
1.00000589522
1.00000550458
1.00000511631
1.00000473077
1.00000434834
1.0000039694
1.0000035943
1.00000322328
1.00000285646
1.00000249364
1.00000213428
1.00000177646
1.00000141795
1.0000010486
1.00000066065
1.00001961902
1.00001920448
1.0000188169
1.00001843943
1.00001806571
1.00001769297
1.00001731935
1.00001694395
1.00001656625
1.00001618603
1.00001580327
1.00001541804
1.00001503052
1.00001464088
1.00001424935
1.00001385615
1.00001346148
1.00001306554
1.00001266852
1.00001227059
1.00001187192
1.00001147265
1.00001107291
1.00001067285
1.00001027257
1.00000987221
1.00000947189
1.00000907172
1.00000867183
1.00000827236
1.00000787344
1.00000747523
1.00000707789
1.0000066816
1.00000628657
1.000005893
1.00000550113
1.00000511119
1.00000472341
1.00000433804
1.00000395525
1.00000357518
1.00000319783
1.00000282301
1.00000245026
1.00000207863
1.00000170637
1.00000133015
1.0000009446
1.0000005266
1.00001972448
1.00001928816
1.00001889078
1.00001850092
1.00001811666
1.00001773442
1.00001735277
1.00001697061
1.00001658732
1.00001620254
1.00001581608
1.00001542789
1.000015038
1.00001464651
1.00001425353
1.0000138592
1.00001346366
1.00001306707
1.00001266957
1.00001227129
1.00001187237
1.00001147292
1.00001107307
1.00001067292
1.0000102726
1.0000098722
1.00000947182
1.00000907159
1.0000086716
1.00000827197
1.00000787282
1.00000747428
1.00000707648
1.00000667957
1.00000628369
1.00000588901
1.00000549568
1.00000510385
1.00000471366
1.00000432522
1.00000393857
1.00000355369
1.00000317041
1.00000278837
1.00000240696
1.00000202506
1.00000164124
1.0000012516
1.00000085458
1.00000041578
1.00001981398
1.00001936151
1.00001895703
1.00001855761
1.00001816486
1.00001777469
1.00001738609
1.00001699791
1.00001660951
1.00001622043
1.0000158304
1.00001543927
1.00001504698
1.00001465354
1.00001425898
1.0000138634
1.00001346687
1.00001306949
1.00001267137
1.00001227261
1.00001187331
1.00001147357
1.00001107349
1.00001067316
1.00001027267
1.00000987211
1.00000947158
1.00000907117
1.00000867096
1.00000827105
1.00000787154
1.00000747253
1.00000707413
1.00000667644
1.00000627957
1.00000588362
1.0000054887
1.00000509488
1.00000470221
1.00000431072
1.00000392035
1.00000353095
1.00000314226
1.00000275384
1.000002365
1.00000197461
1.00000158158
1.00000118174
1.0000007765
1.00000032293
1.00001989079
1.00001942603
1.00001901631
1.00001860946
1.00001820987
1.00001781311
1.00001741855
1.00001702508
1.00001663207
1.00001623903
1.00001584562
1.00001545165
1.00001505698
1.00001466157
1.0000142654
1.00001386848
1.00001347086
1.0000130726
1.00001267376
1.00001227442
1.00001187465
1.00001147453
1.00001107412
1.00001067351
1.00001027277
1.00000987197
1.00000947119
1.0000090705
1.00000866997
1.00000826968
1.00000786971
1.00000747013
1.00000707101
1.00000667244
1.00000627448
1.00000587719
1.00000548061
1.00000508477
1.00000468967
1.00000429523
1.00000390134
1.0000035078
1.00000311427
1.00000272027
1.00000232513
1.00000192775
1.00000152742
1.00000111981
1.00000070859
1.00000024426
1.00001995728
1.0000194829
1.00001906927
1.00001865659
1.00001825148
1.00001784925
1.00001744962
1.00001705153
1.00001665441
1.00001625776
1.00001586122
1.00001546456
1.00001506761
1.00001467026
1.00001427246
1.00001387419
1.00001347544
1.00001307624
1.00001267662
1.00001227663
1.00001187632
1.00001147573
1.00001107493
1.00001067396
1.0000102729
1.00000987178
1.00000947067
1.00000906962
1.0000086687
1.00000826796
1.00000786744
1.00000746721
1.00000706732
1.0000066678
1.0000062687
1.00000587003
1.00000547179
1.00000507397
1.00000467651
1.0000042793
1.00000388218
1.00000348489
1.00000308708
1.00000268826
1.00000228783
1.00000188473
1.00000147859
1.000001065
1.0000006494
1.00000017703
1.00002001517
1.00001953311
1.00001911651
1.0000186992
1.00001828962
1.00001788285
1.00001747893
1.00001707684
1.00001667609
1.00001627619
1.00001587679
1.00001547763
1.00001507851
1.00001467931
1.00001427992
1.00001388029
1.0000134804
1.00001308023
1.0000126798
1.00001227911
1.00001187821
1.00001147711
1.00001107586
1.00001067448
1.00001027303
1.00000987154
1.00000947004
1.00000906859
1.00000866722
1.00000826596
1.00000786486
1.00000746393
1.00000706322
1.00000666272
1.00000626246
1.00000586242
1.00000546257
1.00000506285
1.00000466317
1.0000042634
1.00000386333
1.0000034627
1.00000306115
1.00000265821
1.00000225333
1.00000184557
1.0000014348
1.00000101659
1.00000059772
1.00000011923
1.00002006574
1.00001957744
1.00001915855
1.00001873755
1.00001832434
1.0000179138
1.00001750623
1.0000171007
1.00001669677
1.00001629398
1.00001589199
1.00001549053
1.0000150894
1.00001468843
1.00001428752
1.00001388658
1.00001348557
1.00001308443
1.00001268317
1.00001228177
1.00001188025
1.00001147861
1.00001107687
1.00001067505
1.00001027317
1.00000987126
1.00000946935
1.00000906745
1.00000866559
1.00000826378
1.00000786206
1.00000746041
1.00000705886
1.0000066574
1.00000625599
1.00000585462
1.00000545323
1.00000505172
1.00000465
1.00000424788
1.00000384517
1.00000344159
1.0000030368
1.00000263034
1.00000222177
1.00000181019
1.00000139574
1.00000097392
1.0000005526
1.00000006934
1.00002010997
1.00001961653
1.00001919586
1.00001877187
1.00001835569
1.00001794202
1.00001753139
1.0000171229
1.0000167162
1.00001631085
1.00001590654
1.000015503
1.00001510002
1.00001469742
1.00001429508
1.00001389289
1.00001349078
1.00001308871
1.00001268663
1.00001228452
1.00001188236
1.00001148016
1.00001107792
1.00001067563
1.00001027331
1.00000987096
1.0000094686
1.00000906623
1.00000866386
1.0000082615
1.00000785914
1.00000745678
1.00000705441
1.00000665199
1.00000624949
1.00000584686
1.00000544401
1.00000504086
1.00000463726
1.00000423304
1.00000382798
1.00000342182
1.00000301424
1.00000260482
1.00000219317
1.00000177848
1.00000136108
1.00000093642
1.00000051323
1.00000002623
1.00002014858
1.00001965088
1.00001922881
1.0000188024
1.00001838379
1.00001796752
1.0000175543
1.00001714329
1.00001673419
1.00001632661
1.00001592024
1.00001551483
1.00001511017
1.00001470607
1.0000143024
1.00001389904
1.00001349591
1.00001309294
1.00001269006
1.00001228726
1.00001188448
1.00001148173
1.00001107897
1.00001067621
1.00001027344
1.00000987065
1.00000946783
1.00000906499
1.00000866211
1.00000825919
1.00000785621
1.00000745315
1.00000704998
1.00000664665
1.00000624312
1.00000583931
1.00000543513
1.00000503047
1.00000462518
1.00000421909
1.00000381197
1.00000340358
1.00000299361
1.00000258169
1.00000216749
1.00000175027
1.0000013305
1.00000090359
1.00000047898
0.999999988993
1.00002018216
1.00001968089
1.00001925773
1.00001882934
1.00001840873
1.00001799031
1.00001757491
1.00001716177
1.00001675061
1.00001634108
1.00001593291
1.00001552585
1.00001511968
1.00001471423
1.00001430935
1.00001390492
1.00001350083
1.00001309701
1.00001269339
1.00001228992
1.00001188655
1.00001148326
1.00001108001
1.00001067678
1.00001027356
1.00000987033
1.00000946707
1.00000906376
1.00000866038
1.00000825692
1.00000785334
1.00000744962
1.00000704569
1.00000664152
1.00000623703
1.00000583214
1.00000542675
1.00000502074
1.00000461395
1.00000420621
1.00000379731
1.000003387
1.000002975
1.00000256099
1.00000214468
1.00000172539
1.00000130372
1.00000087504
1.00000044933
0.999999956944
1.00002021114
1.00001970691
1.00001928287
1.00001885287
1.00001843063
1.00001801043
1.00001759322
1.00001717826
1.00001676535
1.00001635416
1.00001594442
1.00001553591
1.00001512842
1.00001472176
1.0000143158
1.00001391039
1.00001350543
1.00001310084
1.00001269653
1.00001229243
1.00001188851
1.00001148471
1.00001108099
1.00001067732
1.00001027367
1.00000987001
1.00000946632
1.00000906257
1.00000865873
1.00000825476
1.00000785062
1.00000744627
1.00000704165
1.0000066367
1.00000623134
1.00000582549
1.00000541902
1.00000501181
1.0000046037
1.00000419453
1.0000037841
1.00000337216
1.00000295846
1.00000254271
1.00000212467
1.0000017037
1.00000128051
1.00000085041
1.00000042385
0.999999929534
1.00002023589
1.00001972919
1.00001930445
1.00001887315
1.00001844958
1.00001802791
1.0000176092
1.00001719274
1.00001677835
1.00001636574
1.00001595467
1.00001554491
1.00001513626
1.00001472856
1.00001432163
1.00001391537
1.00001350964
1.00001310434
1.00001269941
1.00001229475
1.00001189032
1.00001148605
1.00001108189
1.00001067781
1.00001027377
1.00000986972
1.00000946563
1.00000906147
1.00000865719
1.00000825274
1.00000784809
1.00000744318
1.00000703794
1.0000066323
1.00000622617
1.00000581945
1.00000541204
1.00000500379
1.00000459455
1.00000418416
1.00000377242
1.00000335911
1.00000294401
1.00000252682
1.00000210737
1.00000168505
1.00000126064
1.00000082942
1.0000004022
0.99999990633
1.00002025667
1.00001974794
1.00001932266
1.0000188903
1.00001846566
1.0000180428
1.00001762286
1.00001720517
1.00001678956
1.00001637577
1.00001596357
1.00001555276
1.00001514313
1.00001473453
1.00001432678
1.00001391977
1.00001351336
1.00001310746
1.00001270198
1.00001229682
1.00001189193
1.00001148724
1.0000110827
1.00001067825
1.00001027385
1.00000986945
1.000009465
1.00000906047
1.0000086558
1.00000825094
1.00000784583
1.00000744042
1.00000703463
1.00000662838
1.00000622158
1.00000581413
1.00000540591
1.00000499677
1.00000458659
1.00000417517
1.00000376235
1.00000334791
1.00000293164
1.00000251329
1.0000020927
1.0000016693
1.00000124392
1.00000081183
1.0000003841
0.999999886989
1.0000202737
1.00001976334
1.00001933763
1.00001890444
1.00001847895
1.00001805514
1.00001763423
1.00001721553
1.00001679894
1.00001638419
1.00001597107
1.00001555939
1.00001514895
1.0000147396
1.00001433117
1.00001392353
1.00001351655
1.00001311014
1.00001270418
1.00001229861
1.00001189333
1.00001148828
1.0000110834
1.00001067863
1.00001027392
1.00000986921
1.00000946445
1.0000090596
1.00000865459
1.00000824937
1.00000784388
1.00000743804
1.00000703179
1.00000662503
1.00000621767
1.0000058096
1.0000054007
1.00000499084
1.00000457986
1.00000416761
1.00000375391
1.00000333856
1.00000292136
1.00000250209
1.0000020806
1.00000165635
1.00000123022
1.00000079744
1.00000036933
0.999999871239
1.00002028714
1.00001977552
1.00001934948
1.00001891565
1.00001848951
1.00001806497
1.0000176433
1.00001722382
1.00001680646
1.00001639096
1.00001597712
1.00001556475
1.00001515367
1.00001474372
1.00001433474
1.00001392659
1.00001351916
1.00001311233
1.00001270599
1.00001230007
1.00001189447
1.00001148913
1.00001108397
1.00001067894
1.00001027397
1.00000986901
1.000009464
1.00000905888
1.00000865359
1.00000824808
1.00000784227
1.00000743609
1.00000702946
1.00000662228
1.00000621447
1.00000580591
1.00000539647
1.00000498603
1.00000457444
1.00000416153
1.00000374714
1.00000333108
1.00000291316
1.00000249317
1.00000207099
1.00000164609
1.0000012194
1.0000007861
1.00000035771
0.999999858872
1.00002029712
1.00001978456
1.0000193583
1.00001892401
1.00001849738
1.00001807232
1.00001765009
1.00001723005
1.00001681211
1.00001639605
1.00001598168
1.0000155688
1.00001515724
1.00001474684
1.00001433745
1.00001392893
1.00001352115
1.000013114
1.00001270738
1.00001230119
1.00001189535
1.00001148978
1.00001108441
1.00001067917
1.00001027401
1.00000986885
1.00000946365
1.00000905832
1.00000865283
1.00000824709
1.00000784104
1.00000743459
1.00000702767
1.00000662019
1.00000621204
1.0000058031
1.00000539327
1.00000498239
1.00000457034
1.00000415694
1.00000374205
1.00000332546
1.00000290702
1.00000248651
1.00000206384
1.00000163847
1.00000121137
1.0000007777
1.0000003491
0.999999849729
1.00002030372
1.00001979056
1.00001936415
1.00001892955
1.00001850261
1.0000180772
1.00001765461
1.00001723419
1.00001681589
1.00001639946
1.00001598473
1.00001557151
1.00001515964
1.00001474894
1.00001433928
1.0000139305
1.00001352249
1.00001311513
1.00001270831
1.00001230194
1.00001189594
1.00001149022
1.00001108471
1.00001067933
1.00001027403
1.00000986875
1.00000946341
1.00000905795
1.00000865231
1.00000824642
1.0000078402
1.00000743358
1.00000702647
1.00000661878
1.0000062104
1.00000580122
1.00000539111
1.00000497995
1.00000456759
1.00000415388
1.00000373865
1.00000332172
1.00000290294
1.00000248209
1.00000205909
1.00000163342
1.00000120605
1.00000077214
1.00000034342
0.999999843694
1.00002030701
1.00001979354
1.00001936706
1.00001893231
1.00001850522
1.00001807964
1.00001765686
1.00001723627
1.00001681778
1.00001640117
1.00001598626
1.00001557288
1.00001516084
1.00001475
1.00001434019
1.00001393129
1.00001352316
1.0000131157
1.00001270878
1.00001230232
1.00001189624
1.00001149044
1.00001108485
1.00001067941
1.00001027405
1.00000986869
1.00000946329
1.00000905776
1.00000865205
1.00000824608
1.00000783978
1.00000743307
1.00000702587
1.00000661807
1.00000620957
1.00000580027
1.00000539003
1.00000497873
1.00000456622
1.00000415234
1.00000373694
1.00000331985
1.0000029009
1.00000247988
1.00000205672
1.0000016309
1.0000012034
1.00000076938
1.00000034059
0.999999840695
1.00002030701
1.00001979354
1.00001936706
1.00001893231
1.00001850522
1.00001807964
1.00001765686
1.00001723627
1.00001681778
1.00001640117
1.00001598626
1.00001557288
1.00001516084
1.00001475
1.00001434019
1.00001393129
1.00001352316
1.0000131157
1.00001270878
1.00001230232
1.00001189624
1.00001149044
1.00001108485
1.00001067941
1.00001027405
1.00000986869
1.00000946329
1.00000905776
1.00000865205
1.00000824608
1.00000783978
1.00000743307
1.00000702587
1.00000661807
1.00000620957
1.00000580027
1.00000539003
1.00000497873
1.00000456622
1.00000415234
1.00000373694
1.00000331985
1.0000029009
1.00000247988
1.00000205672
1.0000016309
1.0000012034
1.00000076938
1.00000034059
0.999999840695
1.00002030372
1.00001979056
1.00001936415
1.00001892955
1.00001850261
1.0000180772
1.00001765461
1.00001723419
1.00001681589
1.00001639946
1.00001598473
1.00001557151
1.00001515964
1.00001474894
1.00001433928
1.0000139305
1.00001352249
1.00001311513
1.00001270831
1.00001230194
1.00001189594
1.00001149022
1.00001108471
1.00001067933
1.00001027403
1.00000986875
1.00000946341
1.00000905795
1.00000865231
1.00000824642
1.0000078402
1.00000743358
1.00000702647
1.00000661878
1.0000062104
1.00000580122
1.00000539111
1.00000497995
1.00000456759
1.00000415388
1.00000373865
1.00000332172
1.00000290294
1.00000248209
1.00000205909
1.00000163342
1.00000120605
1.00000077214
1.00000034342
0.999999843694
1.00002029712
1.00001978456
1.0000193583
1.00001892401
1.00001849738
1.00001807232
1.00001765009
1.00001723005
1.00001681211
1.00001639605
1.00001598168
1.0000155688
1.00001515724
1.00001474684
1.00001433745
1.00001392893
1.00001352115
1.000013114
1.00001270738
1.00001230119
1.00001189535
1.00001148978
1.00001108441
1.00001067917
1.00001027401
1.00000986885
1.00000946365
1.00000905832
1.00000865283
1.00000824709
1.00000784104
1.00000743459
1.00000702767
1.00000662019
1.00000621204
1.0000058031
1.00000539327
1.00000498239
1.00000457034
1.00000415694
1.00000374205
1.00000332546
1.00000290702
1.00000248651
1.00000206384
1.00000163847
1.00000121137
1.0000007777
1.0000003491
0.999999849729
1.00002028714
1.00001977552
1.00001934948
1.00001891565
1.00001848951
1.00001806497
1.0000176433
1.00001722382
1.00001680646
1.00001639096
1.00001597712
1.00001556475
1.00001515367
1.00001474372
1.00001433474
1.00001392659
1.00001351916
1.00001311233
1.00001270599
1.00001230007
1.00001189447
1.00001148913
1.00001108397
1.00001067894
1.00001027397
1.00000986901
1.000009464
1.00000905888
1.00000865359
1.00000824808
1.00000784227
1.00000743609
1.00000702946
1.00000662228
1.00000621447
1.00000580591
1.00000539647
1.00000498603
1.00000457444
1.00000416153
1.00000374714
1.00000333108
1.00000291316
1.00000249317
1.00000207099
1.00000164609
1.0000012194
1.0000007861
1.00000035771
0.999999858872
1.0000202737
1.00001976334
1.00001933763
1.00001890444
1.00001847895
1.00001805514
1.00001763423
1.00001721553
1.00001679894
1.00001638419
1.00001597107
1.00001555939
1.00001514895
1.0000147396
1.00001433117
1.00001392353
1.00001351655
1.00001311014
1.00001270418
1.00001229861
1.00001189333
1.00001148828
1.0000110834
1.00001067863
1.00001027392
1.00000986921
1.00000946445
1.0000090596
1.00000865459
1.00000824937
1.00000784388
1.00000743804
1.00000703179
1.00000662503
1.00000621767
1.0000058096
1.0000054007
1.00000499084
1.00000457986
1.00000416761
1.00000375391
1.00000333856
1.00000292136
1.00000250209
1.0000020806
1.00000165635
1.00000123022
1.00000079744
1.00000036933
0.999999871239
1.00002025667
1.00001974794
1.00001932266
1.0000188903
1.00001846566
1.0000180428
1.00001762286
1.00001720517
1.00001678956
1.00001637577
1.00001596357
1.00001555276
1.00001514313
1.00001473453
1.00001432678
1.00001391977
1.00001351336
1.00001310746
1.00001270198
1.00001229682
1.00001189193
1.00001148724
1.0000110827
1.00001067825
1.00001027385
1.00000986945
1.000009465
1.00000906047
1.0000086558
1.00000825094
1.00000784583
1.00000744042
1.00000703463
1.00000662838
1.00000622158
1.00000581413
1.00000540591
1.00000499677
1.00000458659
1.00000417517
1.00000376235
1.00000334791
1.00000293164
1.00000251329
1.0000020927
1.0000016693
1.00000124392
1.00000081183
1.0000003841
0.999999886989
1.00002023589
1.00001972919
1.00001930445
1.00001887315
1.00001844958
1.00001802791
1.0000176092
1.00001719274
1.00001677835
1.00001636574
1.00001595467
1.00001554491
1.00001513626
1.00001472856
1.00001432163
1.00001391537
1.00001350964
1.00001310434
1.00001269941
1.00001229475
1.00001189032
1.00001148605
1.00001108189
1.00001067781
1.00001027377
1.00000986972
1.00000946563
1.00000906147
1.00000865719
1.00000825274
1.00000784809
1.00000744318
1.00000703794
1.0000066323
1.00000622617
1.00000581945
1.00000541204
1.00000500379
1.00000459455
1.00000418416
1.00000377242
1.00000335911
1.00000294401
1.00000252682
1.00000210737
1.00000168505
1.00000126064
1.00000082942
1.0000004022
0.99999990633
1.00002021114
1.00001970691
1.00001928287
1.00001885287
1.00001843063
1.00001801043
1.00001759322
1.00001717826
1.00001676535
1.00001635416
1.00001594442
1.00001553591
1.00001512842
1.00001472176
1.0000143158
1.00001391039
1.00001350543
1.00001310084
1.00001269653
1.00001229243
1.00001188851
1.00001148471
1.00001108099
1.00001067732
1.00001027367
1.00000987001
1.00000946632
1.00000906257
1.00000865873
1.00000825476
1.00000785062
1.00000744627
1.00000704165
1.0000066367
1.00000623134
1.00000582549
1.00000541902
1.00000501181
1.0000046037
1.00000419453
1.0000037841
1.00000337216
1.00000295846
1.00000254271
1.00000212467
1.0000017037
1.00000128051
1.00000085041
1.00000042385
0.999999929534
1.00002018216
1.00001968089
1.00001925773
1.00001882934
1.00001840873
1.00001799031
1.00001757491
1.00001716177
1.00001675061
1.00001634108
1.00001593291
1.00001552585
1.00001511968
1.00001471423
1.00001430935
1.00001390492
1.00001350083
1.00001309701
1.00001269339
1.00001228992
1.00001188655
1.00001148326
1.00001108001
1.00001067678
1.00001027356
1.00000987033
1.00000946707
1.00000906376
1.00000866038
1.00000825692
1.00000785334
1.00000744962
1.00000704569
1.00000664152
1.00000623703
1.00000583214
1.00000542675
1.00000502074
1.00000461395
1.00000420621
1.00000379731
1.000003387
1.000002975
1.00000256099
1.00000214468
1.00000172539
1.00000130372
1.00000087504
1.00000044933
0.999999956944
1.00002014858
1.00001965088
1.00001922881
1.0000188024
1.00001838379
1.00001796752
1.0000175543
1.00001714329
1.00001673419
1.00001632661
1.00001592024
1.00001551483
1.00001511017
1.00001470607
1.0000143024
1.00001389904
1.00001349591
1.00001309294
1.00001269006
1.00001228726
1.00001188448
1.00001148173
1.00001107897
1.00001067621
1.00001027344
1.00000987065
1.00000946783
1.00000906499
1.00000866211
1.00000825919
1.00000785621
1.00000745315
1.00000704998
1.00000664665
1.00000624312
1.00000583931
1.00000543513
1.00000503047
1.00000462518
1.00000421909
1.00000381197
1.00000340358
1.00000299361
1.00000258169
1.00000216749
1.00000175027
1.0000013305
1.00000090359
1.00000047898
0.999999988993
1.00002010997
1.00001961653
1.00001919586
1.00001877187
1.00001835569
1.00001794202
1.00001753139
1.0000171229
1.0000167162
1.00001631085
1.00001590654
1.000015503
1.00001510002
1.00001469742
1.00001429508
1.00001389289
1.00001349078
1.00001308871
1.00001268663
1.00001228452
1.00001188236
1.00001148016
1.00001107792
1.00001067563
1.00001027331
1.00000987096
1.0000094686
1.00000906623
1.00000866386
1.0000082615
1.00000785914
1.00000745678
1.00000705441
1.00000665199
1.00000624949
1.00000584686
1.00000544401
1.00000504086
1.00000463726
1.00000423304
1.00000382798
1.00000342182
1.00000301424
1.00000260482
1.00000219317
1.00000177848
1.00000136108
1.00000093642
1.00000051323
1.00000002623
1.00002006574
1.00001957744
1.00001915855
1.00001873755
1.00001832434
1.0000179138
1.00001750623
1.0000171007
1.00001669677
1.00001629398
1.00001589199
1.00001549053
1.0000150894
1.00001468843
1.00001428752
1.00001388658
1.00001348557
1.00001308443
1.00001268317
1.00001228177
1.00001188025
1.00001147861
1.00001107687
1.00001067505
1.00001027317
1.00000987126
1.00000946935
1.00000906745
1.00000866559
1.00000826378
1.00000786206
1.00000746041
1.00000705886
1.0000066574
1.00000625599
1.00000585462
1.00000545323
1.00000505172
1.00000465
1.00000424788
1.00000384517
1.00000344159
1.0000030368
1.00000263034
1.00000222177
1.00000181019
1.00000139574
1.00000097392
1.0000005526
1.00000006934
1.00002001517
1.00001953311
1.00001911651
1.0000186992
1.00001828962
1.00001788285
1.00001747893
1.00001707684
1.00001667609
1.00001627619
1.00001587679
1.00001547763
1.00001507851
1.00001467931
1.00001427992
1.00001388029
1.0000134804
1.00001308023
1.0000126798
1.00001227911
1.00001187821
1.00001147711
1.00001107586
1.00001067448
1.00001027303
1.00000987154
1.00000947004
1.00000906859
1.00000866722
1.00000826596
1.00000786486
1.00000746393
1.00000706322
1.00000666272
1.00000626246
1.00000586242
1.00000546257
1.00000506285
1.00000466317
1.0000042634
1.00000386333
1.0000034627
1.00000306115
1.00000265821
1.00000225333
1.00000184557
1.0000014348
1.00000101659
1.00000059772
1.00000011923
1.00001995728
1.0000194829
1.00001906927
1.00001865659
1.00001825148
1.00001784925
1.00001744962
1.00001705153
1.00001665441
1.00001625776
1.00001586122
1.00001546456
1.00001506761
1.00001467026
1.00001427246
1.00001387419
1.00001347544
1.00001307624
1.00001267662
1.00001227663
1.00001187632
1.00001147573
1.00001107493
1.00001067396
1.0000102729
1.00000987178
1.00000947067
1.00000906962
1.0000086687
1.00000826796
1.00000786744
1.00000746721
1.00000706732
1.0000066678
1.0000062687
1.00000587003
1.00000547179
1.00000507397
1.00000467651
1.0000042793
1.00000388218
1.00000348489
1.00000308708
1.00000268826
1.00000228783
1.00000188473
1.00000147859
1.000001065
1.0000006494
1.00000017703
1.00001989079
1.00001942603
1.00001901631
1.00001860946
1.00001820987
1.00001781311
1.00001741855
1.00001702508
1.00001663207
1.00001623903
1.00001584562
1.00001545165
1.00001505698
1.00001466157
1.0000142654
1.00001386848
1.00001347086
1.0000130726
1.00001267376
1.00001227442
1.00001187465
1.00001147453
1.00001107412
1.00001067351
1.00001027277
1.00000987197
1.00000947119
1.0000090705
1.00000866997
1.00000826968
1.00000786971
1.00000747013
1.00000707101
1.00000667244
1.00000627448
1.00000587719
1.00000548061
1.00000508477
1.00000468967
1.00000429523
1.00000390134
1.0000035078
1.00000311427
1.00000272027
1.00000232513
1.00000192775
1.00000152742
1.00000111981
1.00000070859
1.00000024426
1.00001981398
1.00001936151
1.00001895703
1.00001855761
1.00001816486
1.00001777469
1.00001738609
1.00001699791
1.00001660951
1.00001622043
1.0000158304
1.00001543927
1.00001504698
1.00001465354
1.00001425898
1.0000138634
1.00001346687
1.00001306949
1.00001267137
1.00001227261
1.00001187331
1.00001147357
1.00001107349
1.00001067316
1.00001027267
1.00000987211
1.00000947158
1.00000907117
1.00000867096
1.00000827105
1.00000787154
1.00000747253
1.00000707413
1.00000667644
1.00000627957
1.00000588362
1.0000054887
1.00000509488
1.00000470221
1.00000431072
1.00000392035
1.00000353095
1.00000314226
1.00000275384
1.000002365
1.00000197461
1.00000158158
1.00000118174
1.0000007765
1.00000032293
1.00001972448
1.00001928816
1.00001889078
1.00001850092
1.00001811666
1.00001773442
1.00001735277
1.00001697061
1.00001658732
1.00001620254
1.00001581608
1.00001542789
1.000015038
1.00001464651
1.00001425353
1.0000138592
1.00001346366
1.00001306707
1.00001266957
1.00001227129
1.00001187237
1.00001147292
1.00001107307
1.00001067292
1.0000102726
1.0000098722
1.00000947182
1.00000907159
1.0000086716
1.00000827197
1.00000787282
1.00000747428
1.00000707648
1.00000667957
1.00000628369
1.00000588901
1.00000549568
1.00000510385
1.00000471366
1.00000432522
1.00000393857
1.00000355369
1.00000317041
1.00000278837
1.00000240696
1.00000202506
1.00000164124