/*--------------------------------*- C++ -*----------------------------------*\
| =========                 |                                                 |
| \\      /  F ield         | OpenFOAM: The Open Source CFD Toolbox           |
|  \\    /   O peration     | Version:  2.4.0                                 |
|   \\  /    A nd           | Web:      www.OpenFOAM.org                      |
|    \\/     M anipulation  |                                                 |
\*---------------------------------------------------------------------------*/
FoamFile
{
    version     2.0;
    format      ascii;
    class       volVectorField;
    location    "300";
    object      U;
}
// * * * * * * * * * * * * * * * * * * * * * * * * * * * * * * * * * * * * * //

dimensions      [0 1 -1 0 0 0 0];

internalField   nonuniform List<vector> 
2500
(
(-0.112385521505 -0.0138005228082 0)
(-0.0855495832012 -0.00940360104444 0)
(-0.0703107606262 -0.00481233419717 0)
(-0.0615798964775 -0.00270613750031 0)
(-0.0560414557797 -0.00161128584973 0)
(-0.0523519725305 -0.00105442909343 0)
(-0.0497104933313 -0.00073151965916 0)
(-0.0477494214649 -0.000533707833044 0)
(-0.0462449675539 -0.000401107509474 0)
(-0.0450696657333 -0.000307732246865 0)
(-0.0441396341124 -0.000238556025152 0)
(-0.043399269194 -0.00018562804726 0)
(-0.0428090997081 -0.000143949224727 0)
(-0.0423405173167 -0.000110424949924 0)
(-0.0419720677666 -8.2953444328e-05 0)
(-0.0416873827999 -6.00893125638e-05 0)
(-0.0414737508772 -4.07874930362e-05 0)
(-0.0413211978164 -2.42773497959e-05 0)
(-0.0412218378056 -9.97289667115e-06 0)
(-0.0411694211221 2.58040183654e-06 0)
(-0.0411590055996 1.37431814982e-05 0)
(-0.041186717372 2.38071179868e-05 0)
(-0.0412495737536 3.30129184872e-05 0)
(-0.041345352338 4.15632073122e-05 0)
(-0.0414724947849 4.96321849336e-05 0)
(-0.0416300378541 5.73729769866e-05 0)
(-0.0418175665402 6.4923415886e-05 0)
(-0.0420351860015 7.24106961751e-05 0)
(-0.0422835102734 7.99552261559e-05 0)
(-0.0425636668056 8.76738517541e-05 0)
(-0.0428773167824 9.56825346704e-05 0)
(-0.0432266919105 0.000104098334735 0)
(-0.043614649219 0.000113040369053 0)
(-0.0440447455974 0.000122628558057 0)
(-0.0445213348136 0.000132978539934 0)
(-0.0450496875598 0.000144187738419 0)
(-0.0456361382713 0.000156307932402 0)
(-0.0462882532134 0.000169288319846 0)
(-0.0470150407677 0.000182889080892 0)
(-0.047827215487 0.000196538253071 0)
(-0.0487377199589 0.000209246480728 0)
(-0.049762874885 0.000219675931155 0)
(-0.0509254969365 0.000227319214251 0)
(-0.052263242524 0.000235929384238 0)
(-0.0538469255923 0.000264130067436 0)
(-0.0558319030962 0.00036830312103 0)
(-0.0585210177788 0.000691407742863 0)
(-0.0626372235891 0.00153570304553 0)
(-0.0690703498197 0.00357142970826 0)
(-0.0807034055734 0.00816776084065 0)
(-0.256880129552 -0.0429325430348 0)
(-0.226631085165 -0.0309197582992 0)
(-0.205649790383 -0.0182758892508 0)
(-0.19067031947 -0.0119228868723 0)
(-0.179642420112 -0.00802730202502 0)
(-0.171438033325 -0.00572995439782 0)
(-0.165168956931 -0.00421900427905 0)
(-0.160308998555 -0.0031909789163 0)
(-0.156486020889 -0.00244759256754 0)
(-0.153454254934 -0.00189196542746 0)
(-0.151038774112 -0.00146191674981 0)
(-0.14911490393 -0.00112095199052 0)
(-0.147590344281 -0.000844581143239 0)
(-0.146395738864 -0.000616567037249 0)
(-0.145477836326 -0.000425389863221 0)
(-0.144795236932 -0.000262763303397 0)
(-0.144315386823 -0.000122491562453 0)
(-0.144012532526 1.51538808896e-07 0)
(-0.143866249243 0.000108868906523 0)
(-0.143860384291 0.000206622408222 0)
(-0.143982279146 0.000295835524603 0)
(-0.144222195038 0.000378534376959 0)
(-0.144572886211 0.000456452442242 0)
(-0.145029285682 0.000531109139762 0)
(-0.145588278628 0.000603871619593 0)
(-0.14624854708 0.000676004995054 0)
(-0.147010475088 0.000748715250321 0)
(-0.147876107888 0.000823187784052 0)
(-0.148849162103 0.000900624099683 0)
(-0.149935087084 0.000982278797189 0)
(-0.151141180746 0.00106949905934 0)
(-0.152476766623 0.00116376881353 0)
(-0.153953443761 0.00126676040998 0)
(-0.155585426354 0.00138039641834 0)
(-0.157390001412 0.00150692672246 0)
(-0.159388142553 0.00164902385128 0)
(-0.161605353394 0.00180991256401 0)
(-0.164072830561 0.00199354036726 0)
(-0.166829161533 0.00220487212442 0)
(-0.16992276717 0.00245036229083 0)
(-0.17341572427 0.00273908648015 0)
(-0.177389306129 0.00308488053394 0)
(-0.181952590719 0.00351196905827 0)
(-0.18725385112 0.0040653219453 0)
(-0.193491929713 0.00483626328478 0)
(-0.200929150642 0.00600106296837 0)
(-0.209833226267 0.00790957000646 0)
(-0.2205000481 0.011145145793 0)
(-0.232553543982 0.0167273659964 0)
(-0.246113733548 0.0250265233802 0)
(-0.324278219384 -0.0622387500263 0)
(-0.307514736743 -0.0476617888231 0)
(-0.293048114838 -0.0313359594271 0)
(-0.280645537399 -0.0222944585949 0)
(-0.270499761894 -0.0159768362749 0)
(-0.262361537054 -0.0118883792137 0)
(-0.255837130282 -0.00898673032727 0)
(-0.250609743582 -0.00690012145636 0)
(-0.246411670497 -0.00532761178928 0)
(-0.243043042849 -0.00411465162334 0)
(-0.240349114171 -0.0031525449334 0)
(-0.238212065958 -0.00237431802346 0)
(-0.236540303511 -0.00173282702932 0)
(-0.235262267662 -0.00119569539229 0)
(-0.23432137153 -0.000739247972116 0)
(-0.233672610624 -0.000346011393169 0)
(-0.233280010454 -2.62436484723e-06 0)
(-0.233114796659 0.00030131560402 0)
(-0.233154022469 0.000574113027922 0)
(-0.233379547166 0.000822530580963 0)
(-0.233777262077 0.00105219838938 0)
(-0.234336505199 0.0012679052037 0)
(-0.235049618284 0.00147381950957 0)
(-0.235911616179 0.00167365945271 0)
(-0.236919946383 0.00187082982271 0)
(-0.238074323822 0.00206853650596 0)
(-0.239376630566 0.00226988711015 0)
(-0.240830873968 0.00247798410073 0)
(-0.242443199792 0.00269601608411 0)
(-0.244221959398 0.00292735240053 0)
(-0.246177832758 0.00317564658817 0)
(-0.248324011184 0.00344495485789 0)
(-0.250676447454 0.00373987785868 0)
(-0.253254182345 0.0040657354366 0)
(-0.256079765984 0.00442879138773 0)
(-0.259179787131 0.00483654654671 0)
(-0.26258555715 0.00529814725061 0)
(-0.266333944814 0.00582494917924 0)
(-0.27046849621 0.00643140340032 0)
(-0.275040647699 0.00713634909005 0)
(-0.280111425005 0.00796537302374 0)
(-0.285752182058 0.00895422269928 0)
(-0.292045413991 0.0101558609341 0)
(-0.299077649692 0.0116487656878 0)
(-0.306926594466 0.0135564936206 0)
(-0.315609408645 0.0160539956168 0)
(-0.324994890509 0.0194093847836 0)
(-0.334604409345 0.0238745053118 0)
(-0.343353768257 0.0298057806479 0)
(-0.349599374631 0.036546967878 0)
(-0.362298278871 -0.0692262389825 0)
(-0.357568645744 -0.0553748001598 0)
(-0.350892454237 -0.0390715515096 0)
(-0.343527524891 -0.0293102985602 0)
(-0.336629800075 -0.0218222384095 0)
(-0.330561319652 -0.0166712018238 0)
(-0.325407121873 -0.0128050161743 0)
(-0.321115874102 -0.00991175085942 0)
(-0.317589073272 -0.00765809308366 0)
(-0.31472539028 -0.00587476934823 0)
(-0.31243148858 -0.00443008461964 0)
(-0.310627542843 -0.00324095726423 0)
(-0.309246440145 -0.00224593746489 0)
(-0.308232622596 -0.00140170244024 0)
(-0.307540265219 -0.000675594986116 0)
(-0.307131738618 -4.29658315825e-05 0)
(-0.306976239189 0.000515447478723 0)
(-0.307048686356 0.00101491942022 0)
(-0.30732882112 0.00146785202746 0)
(-0.307800485951 0.00188449780174 0)
(-0.308451046802 0.00227350996138 0)
(-0.309270932214 0.00264233928784 0)
(-0.31025326616 0.00299754204126 0)
(-0.311393577477 0.00334501998515 0)
(-0.312689571752 0.00369021655713 0)
(-0.314140954632 0.00403828209112 0)
(-0.315749297467 0.00439421944943 0)
(-0.317517937598 0.00476301808479 0)
(-0.319451906418 0.0051497836009 0)
(-0.321557878365 0.00555986896276 0)
(-0.323844133909 0.00599901364978 0)
(-0.326320527443 0.00647349714683 0)
(-0.32899845068 0.00699031502811 0)
(-0.331890773915 0.00755738611938 0)
(-0.335011751972 0.00818380626071 0)
(-0.33837684869 0.00888016093206 0)
(-0.342002472657 0.00965893770728 0)
(-0.34590546453 0.0105350504308 0)
(-0.350102412358 0.0115266143627 0)
(-0.354608104142 0.0126559172884 0)
(-0.359433751315 0.0139511206307 0)
(-0.364581658405 0.0154480101024 0)
(-0.37004041615 0.0171939846946 0)
(-0.375764251576 0.0192491162008 0)
(-0.381662431498 0.0216945738597 0)
(-0.387517103022 0.0246147552782 0)
(-0.392999402469 0.0281148298705 0)
(-0.397338496827 0.0321677685997 0)
(-0.399856223607 0.0367438655616 0)
(-0.398480535055 0.0409944326271 0)
(-0.388628203029 -0.0686829047068 0)
(-0.391917571352 -0.0569596903788 0)
(-0.391273037134 -0.0423678023085 0)
(-0.388515100855 -0.032989575332 0)
(-0.384963748734 -0.0252678939943 0)
(-0.381307261822 -0.0196752197815 0)
(-0.377917198527 -0.015275865631 0)
(-0.374935046805 -0.0118684724256 0)
(-0.372401550468 -0.00913651991021 0)
(-0.370305959644 -0.00692583619962 0)
(-0.368617043523 -0.00510139412041 0)
(-0.367296791928 -0.00357669514388 0)
(-0.366307198012 -0.00228423578231 0)
(-0.365613114801 -0.00117528524157 0)
(-0.365183336516 -0.000211959568018 0)
(-0.364990798737 0.000634934810505 0)
(-0.365012395965 0.00138868185351 0)
(-0.365228639623 0.0020680417225 0)
(-0.365623272682 0.00268846160542 0)
(-0.366182890589 0.00326285390456 0)
(-0.366896591271 0.0038022123279 0)
(-0.367755660654 0.00431605944206 0)
(-0.368753293558 0.00481280026439 0)
(-0.369884346001 0.00529999907181 0)
(-0.371145113398 0.0057846058988 0)
(-0.372533128155 0.00627314524534 0)
(-0.374046969655 0.00677187884177 0)
(-0.375686078848 0.00728695012968 0)
(-0.377450568987 0.00782451695023 0)
(-0.379341022482 0.00839087736901 0)
(-0.381358262797 0.00899259309098 0)
(-0.38350308637 0.00963661404645 0)
(-0.385775939806 0.0103304085351 0)
(-0.388176515166 0.0110821016139 0)
(-0.390703248305 0.0119006297038 0)
(-0.393352654686 0.0127959112813 0)
(-0.396118519016 0.0137790591649 0)
(-0.398990712913 0.0148626151481 0)
(-0.4019538794 0.0160609092932 0)
(-0.404984981391 0.0173903946915 0)
(-0.40805127376 0.0188703937401 0)
(-0.41110372374 0.0205232850852 0)
(-0.414075179291 0.0223761128963 0)
(-0.416857435325 0.0244578171425 0)
(-0.419312708512 0.0268022596209 0)
(-0.421178616092 0.0294243945066 0)
(-0.422205894491 0.0323291604928 0)
(-0.421699694362 0.0353776166516 0)
(-0.419618006203 0.0383892081427 0)
(-0.413911326353 0.0406849538491 0)
(-0.407644387755 -0.0642088028395 0)
(-0.415755587823 -0.0549458548127 0)
(-0.419255541088 -0.0425860585673 0)
(-0.420007822984 -0.0340899144549 0)
(-0.419201129145 -0.0266849657957 0)
(-0.417664814604 -0.0210675755804 0)
(-0.415894992018 -0.0164729459496 0)
(-0.414149680085 -0.0128062446129 0)
(-0.412562145604 -0.00979295765155 0)
(-0.411189483565 -0.00730733827014 0)
(-0.410050420122 -0.00522349409151 0)
(-0.409142832614 -0.00345986584044 0)
(-0.40845491036 -0.00194914592052 0)
(-0.40797060949 -0.000641653198094 0)
(-0.40767280498 0.000502424818059 0)
(-0.407544810108 0.00151435839945 0)
(-0.407571148092 0.00241955401938 0)
(-0.407737847804 0.00323875590852 0)
(-0.408032508629 0.00398923024283 0)
(-0.408444230008 0.00468551254533 0)
(-0.408963476458 0.00534002700796 0)
(-0.409581909041 0.00596353767457 0)
(-0.41029220296 0.00656551104845 0)
(-0.411087859265 0.0071543997539 0)
(-0.411963014104 0.00773787377569 0)
(-0.412912245066 0.00832300969749 0)
(-0.413930372247 0.00891644915137 0)
(-0.415012250021 0.00952453305498 0)
(-0.416152544599 0.0101534172167 0)
(-0.417345491005 0.010809173091 0)
(-0.418584623254 0.0114978768547 0)
(-0.41986246812 0.0122256888459 0)
(-0.421170197173 0.0129989259991 0)
(-0.422497218159 0.0138241278743 0)
(-0.423830712268 0.0147081218202 0)
(-0.425155057882 0.0156580840138 0)
(-0.426451216849 0.016681617076 0)
(-0.427695822378 0.0177868183408 0)
(-0.428860422537 0.0189824237265 0)
(-0.429909583994 0.0202778619172 0)
(-0.430800381761 0.0216835768259 0)
(-0.431476612459 0.0232106589889 0)
(-0.431871831043 0.0248714045815 0)
(-0.431886166958 0.0266756622108 0)
(-0.431416738451 0.0286310860814 0)
(-0.430251333145 0.0307217719753 0)
(-0.428283283932 0.0329088250331 0)
(-0.424970948617 0.0350388514995 0)
(-0.420681393788 0.0368928869424 0)
(-0.413588566954 0.0380573001721 0)
(-0.420613768282 -0.0580701593033 0)
(-0.431165376427 -0.0511055983208 0)
(-0.437212811454 -0.0409672930891 0)
(-0.440372485412 -0.0335237732814 0)
(-0.441594636623 -0.0267064191003 0)
(-0.441712856595 -0.0213090270505 0)
(-0.441243579593 -0.0167469600082 0)
(-0.440502637735 -0.0130093079406 0)
(-0.439675502822 -0.00987314143205 0)
(-0.438864904671 -0.00724376362961 0)
(-0.438125723613 -0.0050107942275 0)
(-0.437483849782 -0.00310187494195 0)
(-0.436948907257 -0.00145377620177 0)
(-0.436521163363 -1.87777888938e-05 0)
(-0.436195906794 0.00124250685904 0)
(-0.43596586806 0.00236157381592 0)
(-0.435822676564 0.00336444885919 0)
(-0.435757650135 0.00427262544117 0)
(-0.435762226281 0.00510414770757 0)
(-0.435828159744 0.00587427721126 0)
(-0.435947587885 0.00659607610377 0)
(-0.436113012861 0.00728083334979 0)
(-0.436317235239 0.00793841465726 0)
(-0.436553257284 0.00857753708722 0)
(-0.43681416748 0.00920599365958 0)
(-0.43709301227 0.00983083580549 0)
(-0.437382658186 0.0104585240663 0)
(-0.437675645433 0.0110950527735 0)
(-0.437964033149 0.0117460539568 0)
(-0.438239235208 0.0124168840819 0)
(-0.438491846474 0.0131126968487 0)
(-0.438711455883 0.0138385043732 0)
(-0.438886449645 0.0145992298031 0)
(-0.439003790941 0.0153997527253 0)
(-0.439048797281 0.0162449531625 0)
(-0.439004851556 0.0171397519301 0)
(-0.438853159954 0.0180891646157 0)
(-0.438572239605 0.0190983441571 0)
(-0.438137736752 0.0201726723384 0)
(-0.437520988609 0.0213177459812 0)
(-0.436689552368 0.022539490443 0)
(-0.435601685573 0.0238435950972 0)
(-0.434212193296 0.0252352767306 0)
(-0.432448461211 0.0267156295459 0)
(-0.430250956974 0.0282793218958 0)
(-0.427462060027 0.0298984920212 0)
(-0.424071773401 0.0315148135036 0)
(-0.419665851916 0.0329938403711 0)
(-0.414768410044 0.034123451763 0)
(-0.407848392116 0.0347093660338 0)
(-0.428333654554 -0.0515459691624 0)
(-0.439658120524 -0.0465015427645 0)
(-0.447016766012 -0.0383529833713 0)
(-0.451653143142 -0.0319727025983 0)
(-0.45425192115 -0.0258586440961 0)
(-0.455558472662 -0.0208224629809 0)
(-0.456050131727 -0.0164431974463 0)
(-0.456057081279 -0.0127705334968 0)
(-0.455786896295 -0.00963387982654 0)
(-0.455369369507 -0.00696750728765 0)
(-0.454883344075 -0.00467918335339 0)
(-0.454375287421 -0.00270749593318 0)
(-0.453871547792 -0.000995488725235 0)
(-0.453385857303 0.000500863721019 0)
(-0.452924227685 0.00181897929272 0)
(-0.452487912605 0.00298932293388 0)
(-0.452075301042 0.00403748224563 0)
(-0.451683063283 0.00498482232932 0)
(-0.45130686251 0.00584942722914 0)
(-0.450941774772 0.00664666288222 0)
(-0.450582532325 0.00738970311326 0)
(-0.450223651186 0.00808991699671 0)
(-0.44985948686 0.0087571961808 0)
(-0.449484243743 0.0094002148366 0)
(-0.449091955601 0.0100266455139 0)
(-0.448676447708 0.0106433361117 0)
(-0.448231287744 0.011256457396 0)
(-0.44774972969 0.0118716260129 0)
(-0.447224653813 0.0124940079965 0)
(-0.446648503805 0.013128406318 0)
(-0.446013223058 0.0137793358182 0)
(-0.445310187169 0.0144510880713 0)
(-0.444530137235 0.0151477892199 0)
(-0.44366309717 0.0158734521965 0)
(-0.442698298103 0.0166320275673 0)
(-0.44162403109 0.0174274499449 0)
(-0.440427555152 0.0182636887947 0)
(-0.439094691044 0.0191447778948 0)
(-0.43760978708 0.0200748477854 0)
(-0.43595428628 0.0210580300988 0)
(-0.434107534896 0.02209831735 0)
(-0.432041163118 0.0231988151084 0)
(-0.429726088837 0.0243607263756 0)
(-0.427108888002 0.0255800497496 0)
(-0.424156057144 0.0268433327392 0)
(-0.420747467273 0.0281176378899 0)
(-0.416920582595 0.0293371864721 0)
(-0.412358079589 0.0303940907821 0)
(-0.40759698066 0.0311044441089 0)
(-0.40138700447 0.0314083839807 0)
(-0.431776554115 -0.045311628058 0)
(-0.442822883862 -0.0417545577127 0)
(-0.450614591057 -0.0352903854851 0)
(-0.456014230855 -0.0299074545945 0)
(-0.459459874015 -0.0245279305094 0)
(-0.461560233253 -0.0199305412815 0)
(-0.462723175875 -0.0158302410216 0)
(-0.463262562473 -0.0123178592083 0)
(-0.463386978963 -0.00927115731351 0)
(-0.463238473361 -0.00664970844429 0)
(-0.462909885309 -0.00437988972119 0)
(-0.462461769672 -0.00241160232319 0)
(-0.461932968153 -0.000695254087631 0)
(-0.46134802639 0.000808551518093 0)
(-0.460722071712 0.0021343310585 0)
(-0.460064012156 0.00331073571778 0)
(-0.45937864934 0.00436224010305 0)
(-0.458668050181 0.00530952549346 0)
(-0.457932450105 0.00617026007082 0)
(-0.457170839399 0.00695955021408 0)
(-0.456381346655 0.00769039845175 0)
(-0.45556148631 0.0083740453263 0)
(-0.454708317948 0.00902026885025 0)
(-0.453818546915 0.00963762688088 0)
(-0.452888586578 0.0102336629241 0)
(-0.451914595211 0.0108150778648 0)
(-0.450892496234 0.0113878757156 0)
(-0.449817987142 0.0119574872587 0)
(-0.448686540679 0.0125288759172 0)
(-0.447493399112 0.0131066288582 0)
(-0.446233562889 0.0136950361017 0)
(-0.444901768898 0.0142981595599 0)
(-0.443492461157 0.0149198938652 0)
(-0.44199973261 0.015564019121 0)
(-0.440417260048 0.0162342464217 0)
(-0.438738143864 0.0169342507907 0)
(-0.436954787882 0.0176676899382 0)
(-0.435058430002 0.018438183349 0)
(-0.433039058974 0.0192492416159 0)
(-0.430883911068 0.0201040505133 0)
(-0.428578348578 0.021005066713 0)
(-0.42610047593 0.0219531368691 0)
(-0.423428663944 0.0229459402469 0)
(-0.420519911793 0.0239753182216 0)
(-0.417353949835 0.0250222030832 0)
(-0.413837358546 0.0260519936652 0)
(-0.410028031767 0.0269995996138 0)
(-0.405683127411 0.0277821920679 0)
(-0.40129435263 0.0282523206899 0)
(-0.395838779389 0.0284167655068 0)
(-0.432100307728 -0.0396701107075 0)
(-0.442306329059 -0.0372035656943 0)
(-0.44997100913 -0.0321140990389 0)
(-0.455635620968 -0.0276265852186 0)
(-0.459535911138 -0.0229639697853 0)
(-0.462131583922 -0.0188403885417 0)
(-0.463749563184 -0.0150760254008 0)
(-0.464668119495 -0.0117871601061 0)
(-0.465082773804 -0.00889346793766 0)
(-0.465136432972 -0.00637576317005 0)
(-0.464927969398 -0.00417822321898 0)
(-0.464526420257 -0.00226170015945 0)
(-0.463979300618 -0.000584364257388 0)
(-0.463319396606 0.000888117297612 0)
(-0.462569250752 0.00218683227979 0)
(-0.461744339703 0.00333815200254 0)
(-0.460855225377 0.00436502046237 0)
(-0.459909030227 0.00528709061262 0)
(-0.458910445128 0.0061213353843 0)
(-0.45786242031 0.00688238637682 0)
(-0.456766642108 0.00758291741376 0)
(-0.455623863428 0.00823393651537 0)
(-0.454434134898 0.00884505274106 0)
(-0.453196967569 0.00942469707881 0)
(-0.451911448275 0.00998031451804 0)
(-0.450576321492 0.0105185270901 0)
(-0.44919004689 0.0110452742769 0)
(-0.447750838124 0.0115659333208 0)
(-0.446256686315 0.0120854227488 0)
(-0.444705368658 0.0126082911904 0)
(-0.443094442934 0.0131387932895 0)
(-0.441421222213 0.0136809535979 0)
(-0.439682732215 0.0142386187692 0)
(-0.437875629092 0.0148154966936 0)
(-0.435996101131 0.0154151801781 0)
(-0.434039667007 0.0160411482526 0)
(-0.432001013377 0.0166967354069 0)
(-0.429873494179 0.0173850469077 0)
(-0.427649042123 0.0181087863574 0)
(-0.425316760616 0.0188699414581 0)
(-0.422863938332 0.0196692018392 0)
(-0.420271315836 0.0205050633037 0)
(-0.417520796371 0.0213720743056 0)
(-0.414576639723 0.0222589245664 0)
(-0.411426943782 0.023143524511 0)
(-0.408000056885 0.0239922674421 0)
(-0.404362148308 0.0247461552849 0)
(-0.400326379804 0.0253431290264 0)
(-0.396324965495 0.0256713613752 0)
(-0.391503089311 0.0257636476519 0)
(-0.430461347029 -0.0347097587739 0)
(-0.439609689503 -0.033012144794 0)
(-0.446840607324 -0.0290150199631 0)
(-0.452457851981 -0.0253057752138 0)
(-0.456547484111 -0.021311886202 0)
(-0.459431808354 -0.0176659314944 0)
(-0.461357706961 -0.0142643157927 0)
(-0.462558235031 -0.0112361865917 0)
(-0.463207176718 -0.00853554816345 0)
(-0.463439970123 -0.00616035232436 0)
(-0.463355253448 -0.004070967617 0)
(-0.463025740603 -0.00223840792017 0)
(-0.462504135524 -0.000628548948554 0)
(-0.461828918053 0.000787758698854 0)
(-0.461028195984 0.00203790623947 0)
(-0.460122654208 0.0031457120486 0)
(-0.459127600174 0.0041323209775 0)
(-0.458054435754 0.00501612373203 0)
(-0.456911692525 0.00581319856656 0)
(-0.455705769611 0.00653754015344 0)
(-0.454441459612 0.00720136515954 0)
(-0.453122326886 0.00781535118709 0)
(-0.451750981401 0.00838886666669 0)
(-0.450329278314 0.0089301660306 0)
(-0.448858463836 0.00944656357436 0)
(-0.447339281296 0.00994458324483 0)
(-0.445772046727 0.0104300889159 0)
(-0.44415669975 0.0109083962971 0)
(-0.442492833468 0.0113843686846 0)
(-0.44077970415 0.0118624976875 0)
(-0.439016221971 0.0123469697899 0)
(-0.437200917883 0.0128417187461 0)
(-0.435331890313 0.0133504629221 0)
(-0.433406711626 0.0138767252732 0)
(-0.431422320635 0.0144238314565 0)
(-0.429374820913 0.0149948789295 0)
(-0.427259330948 0.0155926627249 0)
(-0.425069536464 0.0162195417852 0)
(-0.422797677062 0.0168771996619 0)
(-0.420433366818 0.0175662828585 0)
(-0.417964773437 0.0182857498339 0)
(-0.415374682015 0.019032058042 0)
(-0.412648060336 0.0197974843347 0)
(-0.409756066608 0.0205689151633 0)
(-0.406693634108 0.0213236283765 0)
(-0.403407212598 0.0220308444121 0)
(-0.399965467669 0.0226402029389 0)
(-0.396221632081 0.0231057137933 0)
(-0.392552067902 0.0233455872276 0)
(-0.388220682187 0.0233983911647 0)
(-0.427832633046 -0.0304031463175 0)
(-0.435918886495 -0.0292336096601 0)
(-0.442589057822 -0.0260873639373 0)
(-0.447988921489 -0.023037222603 0)
(-0.452104151077 -0.0196458081548 0)
(-0.455143333609 -0.0164587075974 0)
(-0.457281719168 -0.0134237532993 0)
(-0.458704900685 -0.0106731742268 0)
(-0.459560495716 -0.00818747189914 0)
(-0.459970911669 -0.00597773803712 0)
(-0.460029823119 -0.00401840677599 0)
(-0.459809647412 -0.00228958014731 0)
(-0.459365193193 -0.000764455586784 0)
(-0.458738224311 0.000581032353567 0)
(-0.457960545748 0.0017704902159 0)
(-0.457056573537 0.00282503568247 0)
(-0.456045167872 0.00376383648925 0)
(-0.454941015444 0.004603846296 0)
(-0.453755629581 0.00536008407351 0)
(-0.45249808765 0.00604575929262 0)
(-0.451175571052 0.00667249908078 0)
(-0.449793764754 0.00725053302583 0)
(-0.448357153782 0.00778888347924 0)
(-0.446869244505 0.00829553217998 0)
(-0.44533272979 0.00877757279219 0)
(-0.443749611467 0.00924134436078 0)
(-0.442121289321 0.00969254843508 0)
(-0.440448622641 0.010136349732 0)
(-0.438731968498 0.0105774615297 0)
(-0.436971198245 0.0110202161178 0)
(-0.435165694423 0.0114686204236 0)
(-0.433314324505 0.0119263961885 0)
(-0.431415396684 0.0123970030402 0)
(-0.429466580656 0.012883641709 0)
(-0.427464821476 0.0133892318007 0)
(-0.42540617499 0.0139163575424 0)
(-0.423285708195 0.0144671653529 0)
(-0.421097148172 0.0150432029372 0)
(-0.418832969095 0.01564515019 0)
(-0.416483469205 0.0162724530437 0)
(-0.414038062636 0.0169226848362 0)
(-0.411482074071 0.0175908626107 0)
(-0.408803892794 0.0182679900054 0)
(-0.405981370354 0.0189403981525 0)
(-0.403015198489 0.0195864206103 0)
(-0.399866076449 0.02017900641 0)
(-0.396602058754 0.0206768111853 0)
(-0.393103710044 0.0210457932162 0)
(-0.389700717937 0.0212273368074 0)
(-0.385739692786 0.0212573451885 0)
(-0.424911438171 -0.0266687189437 0)
(-0.432041487522 -0.0258559699001 0)
(-0.438135640399 -0.0233640213263 0)
(-0.443244582025 -0.0208610753043 0)
(-0.447293536856 -0.0179981321747 0)
(-0.450404177032 -0.0152365596293 0)
(-0.452692152041 -0.0125561782928 0)
(-0.454298320084 -0.010085151533 0)
(-0.455342970468 -0.00782310507956 0)
(-0.455932343361 -0.00579052438813 0)
(-0.456151884163 -0.00397349593441 0)
(-0.456070658562 -0.00235994156872 0)
(-0.455743033501 -0.000929748179056 0)
(-0.455211962912 0.000336338604861 0)
(-0.454511262025 0.00145819784445 0)
(-0.453667704892 0.00245420053414 0)
(-0.452702573576 0.00334143381889 0)
(-0.451632887122 0.00413528937 0)
(-0.450472319097 0.00484959437169 0)
(-0.449231898121 0.00549664268611 0)
(-0.447920535513 0.00608734672465 0)
(-0.446545427036 0.0066313695917 0)
(-0.445112358908 0.00713727550028 0)
(-0.443625942234 0.00761266707293 0)
(-0.442089792621 0.00806431544188 0)
(-0.440506667285 0.00849827629601 0)
(-0.438878568382 0.00891999292843 0)
(-0.43720681853 0.00933438503666 0)
(-0.435492112974 0.00974592355749 0)
(-0.433734550426 0.0101586911819 0)
(-0.43193364547 0.0105764280828 0)
(-0.43008832015 0.0110025617809 0)
(-0.428196880929 0.0114402190173 0)
(-0.426256966751 0.0118922167098 0)
(-0.424265496627 0.01236102601 0)
(-0.422218553828 0.0128487037421 0)
(-0.420111343069 0.0133567751806 0)
(-0.417937938021 0.0138860628563 0)
(-0.415691453997 0.0144364142609 0)
(-0.413363349522 0.0150063576255 0)
(-0.410944760631 0.0155925230653 0)
(-0.408423885263 0.0161890982146 0)
(-0.405792588382 0.0167866493703 0)
(-0.403034681539 0.0173718528167 0)
(-0.400155388903 0.0179250354751 0)
(-0.397125953642 0.0184230719374 0)
(-0.39401216876 0.0188328188128 0)
(-0.390712652463 0.0191289600457 0)
(-0.387520073536 0.0192698329212 0)
(-0.383839179726 0.01928607251 0)
(-0.422119477754 -0.0234078807056 0)
(-0.428440332737 -0.0228342110504 0)
(-0.434001962172 -0.0208429784406 0)
(-0.438804140542 -0.0187884586145 0)
(-0.442740663207 -0.0163804617341 0)
(-0.445870895078 -0.0140038000686 0)
(-0.448263686871 -0.0116562349993 0)
(-0.450020703526 -0.00945711232541 0)
(-0.451236081799 -0.00741877026372 0)
(-0.451998755004 -0.00556774205452 0)
(-0.452384027763 -0.00389927768194 0)
(-0.452455511031 -0.00240774034834 0)
(-0.452265218728 -0.00107889264288 0)
(-0.451855645092 0.000102124646619 0)
(-0.451261250029 0.00115164781862 0)
(-0.450510043182 0.00208535086013 0)
(-0.449624808694 0.0029182119638 0)
(-0.44862413765 0.00366399199757 0)
(-0.44752322872 0.00433523686205 0)
(-0.446334524128 0.00494322744343 0)
(-0.445068204525 0.0054980626512 0)
(-0.443732578045 0.00600874275504 0)
(-0.442334385565 0.00648328169949 0)
(-0.440879041539 0.00692881600028 0)
(-0.439370824099 0.00735171276867 0)
(-0.437813024947 0.00775766855145 0)
(-0.436208066777 0.00815179850473 0)
(-0.434557593739 0.00853871368928 0)
(-0.43286253932 0.00892258595788 0)
(-0.431123173896 0.00930719949388 0)
(-0.429339135228 0.00969598804847 0)
(-0.427509440407 0.0100920564628 0)
(-0.425632485969 0.0104981840615 0)
(-0.423706024337 0.0109168069934 0)
(-0.421727144506 0.0113499736397 0)
(-0.419692202019 0.0117992683728 0)
(-0.417596825681 0.0122656890761 0)
(-0.415435749839 0.012749477128 0)
(-0.413203049672 0.0132498590045 0)
(-0.410891621956 0.0137647386052 0)
(-0.408494510217 0.0142902013209 0)
(-0.406002736401 0.0148201009795 0)
(-0.403411327686 0.0153451584175 0)
(-0.400709016856 0.0158529494815 0)
(-0.397904358852 0.0163261796895 0)
(-0.394976043581 0.0167454431233 0)
(-0.391986880671 0.0170845304003 0)
(-0.388847242319 0.0173244788117 0)
(-0.38582110456 0.0174356630934 0)
(-0.382355029503 0.0174433209111 0)
(-0.419660061321 -0.0205258107597 0)
(-0.425319951414 -0.0201122565761 0)
(-0.430416181795 -0.0185057755539 0)
(-0.434925871437 -0.0168166991554 0)
(-0.438730567743 -0.014796153703 0)
(-0.44184741225 -0.0127621876024 0)
(-0.444310248184 -0.0107211495087 0)
(-0.446188223042 -0.00878081606934 0)
(-0.447551960403 -0.00696104759564 0)
(-0.448473443814 -0.00529159038763 0)
(-0.449017078353 -0.00377447709166 0)
(-0.449239802031 -0.0024091110207 0)
(-0.449190002229 -0.00118620589375 0)
(-0.448908537846 -9.47731862979e-05 0)
(-0.448429506985 0.000878271841247 0)
(-0.447781319334 0.001746042795 0)
(-0.446987582191 0.00252145311932 0)
(-0.446067911444 0.00321662217662 0)
(-0.445038592221 0.00384277282287 0)
(-0.443913129767 0.00441011525733 0)
(-0.442702695283 0.00492787025463 0)
(-0.44141648971 0.0054043093464 0)
(-0.440062038837 0.00584683233381 0)
(-0.438645433683 0.00626204979858 0)
(-0.437171526125 0.00665587024616 0)
(-0.435644088037 0.00703358251811 0)
(-0.43406594024 0.0073999316647 0)
(-0.432439056006 0.00775918527075 0)
(-0.430764643103 0.00811518900511 0)
(-0.42904320667 0.00847140996359 0)
(-0.427274596318 0.00883096646949 0)
(-0.425458036728 0.00919664268202 0)
(-0.423592148722 0.00957088549364 0)
(-0.421674951172 0.0099557809412 0)
(-0.419703870723 0.0103530047334 0)
(-0.417675711514 0.0107637432637 0)
(-0.41558670284 0.0111885727777 0)
(-0.413432401155 0.0116272984878 0)
(-0.411207969174 0.0120787206807 0)
(-0.408907793726 0.0125403707995 0)
(-0.406526771369 0.0130081055846 0)
(-0.404058464994 0.0134758090122 0)
(-0.401500585431 0.0139347369537 0)
(-0.398845735747 0.0143736609984 0)
(-0.396104794018 0.014777713896 0)
(-0.393261545956 0.0151308207827 0)
(-0.390375658475 0.0154124033483 0)
(-0.387365161148 0.0156081522747 0)
(-0.384471940523 0.0156968723157 0)
(-0.381173507458 0.0156991111703 0)
(-0.417592902403 -0.0179411400735 0)
(-0.42272270182 -0.017635710542 0)
(-0.427424502611 -0.0163286799805 0)
(-0.43166923715 -0.0149379201149 0)
(-0.435337709763 -0.0132462374973 0)
(-0.438419971563 -0.0115149187571 0)
(-0.440924766959 -0.00975320550202 0)
(-0.442895397532 -0.00805607377109 0)
(-0.444382333907 -0.0064469728912 0)
(-0.44544195623 -0.00495658681146 0)
(-0.446127894192 -0.00359159287787 0)
(-0.446489929453 -0.00235509183418 0)
(-0.446572108854 -0.00124178511131 0)
(-0.446412906264 -0.000243964070788 0)
(-0.446045373607 0.0006485724654 0)
(-0.445497735156 0.00144658353326 0)
(-0.444793941677 0.00216102285558 0)
(-0.443954250852 0.0028024081696 0)
(-0.442995734959 0.00338063987588 0)
(-0.44193273278 0.00390483516882 0)
(-0.440777234198 0.00438330221781 0)
(-0.439539208384 0.00482354407801 0)
(-0.438226880516 0.00523230574693 0)
(-0.436846965109 0.00561563303678 0)
(-0.435404861966 0.00597894054587 0)
(-0.433904820397 0.00632707873722 0)
(-0.432350076286 0.00666439724678 0)
(-0.430742965762 0.00699480081582 0)
(-0.429085018898 0.00732179605714 0)
(-0.427377035611 0.00764852725326 0)
(-0.425619147206 0.00797779958279 0)
(-0.4238108634 0.00831208800157 0)
(-0.421951112018 0.00865352931103 0)
(-0.420038263557 0.00900389491313 0)
(-0.418070166479 0.00936453958666 0)
(-0.416044151382 0.00973632373415 0)
(-0.413957112686 0.0101194993505 0)
(-0.411805467047 0.0105135637039 0)
(-0.40958546206 0.0109170557325 0)
(-0.407292894931 0.0113273378172 0)
(-0.404924342204 0.0117402766681 0)
(-0.402475542687 0.0121500403841 0)