/*--------------------------------*- C++ -*----------------------------------*\
| =========                 |                                                 |
| \\      /  F ield         | OpenFOAM: The Open Source CFD Toolbox           |
|  \\    /   O peration     | Version:  2.4.0                                 |
|   \\  /    A nd           | Web:      www.OpenFOAM.org                      |
|    \\/     M anipulation  |                                                 |
\*---------------------------------------------------------------------------*/
FoamFile
{
    version     2.0;
    format      ascii;
    class       volVectorField;
    location    "300";
    object      U;
}
// * * * * * * * * * * * * * * * * * * * * * * * * * * * * * * * * * * * * * //

dimensions      [0 1 -1 0 0 0 0];

internalField   nonuniform List<vector> 
2500
(
(2.27623898817e-05 4.33643103877e-07 0)
(2.23108773235e-05 6.21917678509e-08 0)
(2.23426451407e-05 -5.23511371452e-08 0)
(2.24843281558e-05 -6.4551924785e-08 0)
(2.26455402546e-05 -5.43454217235e-08 0)
(2.27892774004e-05 -4.26515538114e-08 0)
(2.29122659571e-05 -3.3689961024e-08 0)
(2.30166180703e-05 -2.73432865726e-08 0)
(2.31057003541e-05 -2.27525351899e-08 0)
(2.31821952302e-05 -1.92570422941e-08 0)
(2.32481548008e-05 -1.64575074995e-08 0)
(2.330514093e-05 -1.41316334108e-08 0)
(2.33543895637e-05 -1.21537039017e-08 0)
(2.33969084422e-05 -1.04475066918e-08 0)
(2.3433537456e-05 -8.96196723681e-09 0)
(2.34649848354e-05 -7.65948150673e-09 0)
(2.34918507785e-05 -6.51032180248e-09 0)
(2.3514643886e-05 -5.48983903351e-09 0)
(2.35337932853e-05 -4.57692368898e-09 0)
(2.35496578618e-05 -3.75305312123e-09 0)
(2.35625333763e-05 -3.00163839302e-09 0)
(2.35726579286e-05 -2.30753423775e-09 0)
(2.35802160672e-05 -1.65665033211e-09 0)
(2.358534174e-05 -1.03562434092e-09 0)
(2.35881202239e-05 -4.31535650349e-10 0)
(2.35885891057e-05 1.68358535605e-10 0)
(2.35867383619e-05 7.76877318962e-10 0)
(2.35825095321e-05 1.40717376755e-09 0)
(2.35757939509e-05 2.07300675838e-09 0)
(2.35664299592e-05 2.78904198204e-09 0)
(2.35541989713e-05 3.57119572582e-09 0)
(2.35388202153e-05 4.43704429549e-09 0)
(2.35199438874e-05 5.40632743165e-09 0)
(2.34971423583e-05 6.50158770423e-09 0)
(2.34698989209e-05 7.7490209847e-09 0)
(2.34375933189e-05 9.17967960457e-09 0)
(2.33994828632e-05 1.08313288164e-08 0)
(2.3354677102e-05 1.27516544799e-08 0)
(2.33021021727e-05 1.50044508872e-08 0)
(2.32404475704e-05 1.76824415027e-08 0)
(2.31680799056e-05 2.09345993805e-08 0)
(2.30829005904e-05 2.50219627885e-08 0)
(2.29820976343e-05 3.04231489436e-08 0)
(2.28618215953e-05 3.79881458661e-08 0)
(2.27167606102e-05 4.90440476034e-08 0)
(2.25411941384e-05 6.48359960651e-08 0)
(2.23318606353e-05 8.35594992537e-08 0)
(2.21131130118e-05 8.86765251617e-08 0)
(2.19599918852e-05 5.018009916e-09 0)
(2.22207732568e-05 -3.24568609303e-07 0)
(8.16822723844e-05 1.2041065384e-06 0)
(8.12086945413e-05 2.37777695363e-07 0)
(8.12476174785e-05 -2.09643745093e-07 0)
(8.15066930941e-05 -3.27624372916e-07 0)
(8.18618445501e-05 -3.30989026508e-07 0)
(8.22303446065e-05 -3.00691117688e-07 0)
(8.25802220811e-05 -2.64499803326e-07 0)
(8.28986530708e-05 -2.30549010091e-07 0)
(8.31828988413e-05 -2.00552271783e-07 0)
(8.34340534026e-05 -1.74399309773e-07 0)
(8.36547054611e-05 -1.51595886615e-07 0)
(8.38478149409e-05 -1.31650712185e-07 0)
(8.40162855493e-05 -1.14146357195e-07 0)
(8.41627958598e-05 -9.87347813837e-08 0)
(8.42897489001e-05 -8.51217330939e-08 0)
(8.43992671571e-05 -7.30540902995e-08 0)
(8.44932056532e-05 -6.23108806481e-08 0)
(8.45731706102e-05 -5.26967893781e-08 0)
(8.46405386787e-05 -4.40371596761e-08 0)
(8.46964745815e-05 -3.61739321081e-08 0)
(8.47419463414e-05 -2.89622290289e-08 0)
(8.47777378357e-05 -2.22674078548e-08 0)
(8.48044586478e-05 -1.59624612238e-08 0)
(8.48225512805e-05 -9.92566822044e-09 0)
(8.48322957982e-05 -4.03841117868e-09 0)
(8.48338119395e-05 1.81691599822e-09 0)
(8.48270586961e-05 7.75898586581e-09 0)
(8.48118312942e-05 1.39096698025e-08 0)
(8.47877554416e-05 2.03963074061e-08 0)
(8.47542786311e-05 2.73541972098e-08 0)
(8.47106581922e-05 3.49294158252e-08 0)
(8.46559456877e-05 4.32820907494e-08 0)
(8.45889671218e-05 5.25902931919e-08 0)
(8.45082983054e-05 6.30547657287e-08 0)
(8.44122345918e-05 7.49047811046e-08 0)
(8.42987541103e-05 8.84055828532e-08 0)
(8.41654736839e-05 1.03868122575e-07 0)
(8.40095971323e-05 1.21662371714e-07 0)
(8.38278572277e-05 1.42236518083e-07 0)
(8.36164577479e-05 1.6614592477e-07 0)
(8.33710335973e-05 1.94096872743e-07 0)
(8.3086686209e-05 2.27003894349e-07 0)
(8.27582150022e-05 2.66023714282e-07 0)
(8.2380946603e-05 3.12380759505e-07 0)
(8.19527148373e-05 3.66333471751e-07 0)
(8.14796409075e-05 4.23265786694e-07 0)
(8.09855862804e-05 4.6120141152e-07 0)
(8.05440882948e-05 4.06601362578e-07 0)
(8.02793442215e-05 4.69556624432e-08 0)
(8.04830007947e-05 -8.29359229423e-07 0)
(0.000139179832011 1.80891725181e-06 0)
(0.000138774962324 4.29772387021e-07 0)
(0.000138755425009 -3.63672655289e-07 0)
(0.000138980999506 -6.68626335396e-07 0)
(0.000139358276934 -7.46662215246e-07 0)
(0.000139796695375 -7.27624439646e-07 0)
(0.00014024557733 -6.71841160379e-07 0)
(0.000140676577112 -6.05144262225e-07 0)
(0.000141076451325 -5.38266203986e-07 0)
(0.000141439990954 -4.75370141907e-07 0)
(0.000141766318359 -4.17849059194e-07 0)
(0.000142056691263 -3.65930885174e-07 0)
(0.000142313355543 -3.19363316865e-07 0)
(0.00014253892998 -2.77706255067e-07 0)
(0.000142736086972 -2.40459267631e-07 0)
(0.00014290738699 -2.07117428586e-07 0)
(0.000143055195476 -1.77195055474e-07 0)
(0.000143181643458 -1.50234451227e-07 0)
(0.00014328861147 -1.25807451845e-07 0)
(0.000143377725586 -1.0351349998e-07 0)
(0.000143450359363 -8.29760882013e-08 0)
(0.000143507638182 -6.38384835246e-08 0)
(0.000143550443934 -4.57591767882e-08 0)
(0.00014357941886 -2.84072472177e-08 0)
(0.000143594967795 -1.14576931371e-08 0)
(0.000143597258366 5.41328947294e-09 0)
(0.000143586218806 2.25331468555e-08 0)
(0.000143561533164 4.02380177222e-08 0)
(0.000143522633706 5.88781054426e-08 0)
(0.000143468690364 7.88235048223e-08 0)
(0.000143398597111 1.00470628249e-07 0)
(0.000143310955243 1.24249388928e-07 0)
(0.000143204053693 1.50631294433e-07 0)
(0.000143075846842 1.80138576279e-07 0)
(0.000142923930888 2.13354373681e-07 0)
(0.000142745521022 2.50933760808e-07 0)
(0.000142537433897 2.93614851347e-07 0)
(0.000142296084256 3.42227977187e-07 0)
(0.000142017513049 3.97697970361e-07 0)
(0.000141697481783 4.61027278465e-07 0)
(0.000141331700398 5.33228783781e-07 0)
(0.000140916328087 6.1512919224e-07 0)
(0.000140448993835 7.06837488606e-07 0)
(0.000139930881759 8.06374342341e-07 0)
(0.000139370494895 9.06182137984e-07 0)
(0.000138791098468 9.84794821706e-07 0)
(0.000138239728441 9.8686282794e-07 0)
(0.000137806739474 7.84501206277e-07 0)
(0.000137597783916 1.05950574886e-07 0)
(0.000137761169303 -1.18308307326e-06 0)
(0.000194923058576 2.27611726812e-06 0)
(0.000194591436209 6.33687961082e-07 0)
(0.000194518722935 -4.38591766543e-07 0)
(0.000194660979558 -9.48047896746e-07 0)
(0.000194970624428 -1.14305399924e-06 0)
(0.000195375805825 -1.17435744713e-06 0)
(0.000195824204219 -1.12654861864e-06 0)
(0.00019627967955 -1.04351971231e-06 0)
(0.000196720476922 -9.47687791065e-07 0)
(0.000197134390386 -8.50201854555e-07 0)
(0.000197515405902 -7.56443323754e-07 0)
(0.000197861255818 -6.6882386144e-07 0)
(0.000198171876072 -5.88223776781e-07 0)
(0.000198448436609 -5.14730890889e-07 0)
(0.000198692749404 -4.48026639495e-07 0)
(0.000198906907077 -3.87590389056e-07 0)
(0.000199093063231 -3.3280864194e-07 0)
(0.000199253298963 -2.83033202711e-07 0)
(0.000199389542073 -2.37611376172e-07 0)
(0.000199503518478 -1.95900531645e-07 0)
(0.000199596723259 -1.57273798939e-07 0)
(0.000199670403513 -1.2112066119e-07 0)
(0.000199725548046 -8.68445705555e-08 0)
(0.000199762880782 -5.38587825473e-08 0)
(0.000199782855819 -2.15810816979e-08 0)
(0.000199785652855 1.05722443185e-08 0)
(0.000199771172127 4.31929930986e-08 0)
(0.000199739028406 7.68881210433e-08 0)
(0.000199688543832 1.1228726345e-07 0)
(0.000199618739676 1.50050682141e-07 0)
(0.000199528327415 1.90877580011e-07 0)
(0.000199415699961 2.35514624918e-07 0)
(0.000199278924555 2.8476432457e-07 0)
(0.000199115739869 3.3949250237e-07 0)
(0.000198923561586 4.00633392274e-07 0)
(0.00019869950353 4.69189509852e-07 0)
(0.000198440426189 5.46220861941e-07 0)
(0.000198143032512 6.32813072113e-07 0)
(0.00019780404455 7.30004105182e-07 0)
(0.000197420518219 8.38629342115e-07 0)
(0.000196990391219 9.59003199462e-07 0)
(0.000196513425806 1.09027056627e-06 0)
(0.000195992780112 1.22907899353e-06 0)
(0.000195437602284 1.36688032223e-06 0)
(0.000194866832135 1.48441002924e-06 0)
(0.000194314873971 1.54098579738e-06 0)
(0.000193835315334 1.45360168175e-06 0)
(0.000193505452115 1.06674446316e-06 0)
(0.00019338717753 1.13799854002e-07 0)
(0.000193528310566 -1.44914678125e-06 0)
(0.000248579524571 2.62378515807e-06 0)
(0.000248313860568 8.31576404584e-07 0)
(0.000248207221012 -4.43264790931e-07 0)
(0.000248268500055 -1.13947302636e-06 0)
(0.000248485476893 -1.46772708441e-06 0)
(0.000248811746432 -1.57737521677e-06 0)
(0.000249203882661 -1.56474989893e-06 0)
(0.000249626161208 -1.48707155974e-06 0)
(0.00025005321172 -1.37764640622e-06 0)
(0.000250468176433 -1.25542203984e-06 0)
(0.000250860660014 -1.13099741638e-06 0)
(0.000251224770356 -1.01012657067e-06 0)
(0.000251557639318 -8.95758983379e-07 0)
(0.000251858355465 -7.8921491091e-07 0)
(0.000252127229458 -6.90866991142e-07 0)
(0.000252365295885 -6.00537847621e-07 0)
(0.000252573978947 -5.17733917675e-07 0)
(0.000252754868734 -4.41783575712e-07 0)
(0.000252909571632 -3.7191861111e-07 0)
(0.000253039610179 -3.07321689282e-07 0)
(0.000253146355869 -2.47153097175e-07 0)
(0.000253230983848 -1.9056469624e-07 0)
(0.000253294442084 -1.36705867104e-07 0)
(0.000253337430056 -8.47243650198e-08 0)
(0.000253360383608 -3.37638956945e-08 0)
(0.000253363463813 1.70404523879e-08 0)
(0.00025334654845 6.85681715364e-08 0)
(0.000253309225413 1.21720169245e-07 0)
(0.000253250787858 1.77426033151e-07 0)
(0.000253170231501 2.36651269349e-07 0)
(0.000253066255098 3.00403907917e-07 0)
(0.000252937265979 3.69739562252e-07 0)
(0.000252781393667 4.45763461204e-07 0)
(0.000252596516337 5.29626977769e-07 0)
(0.000252380307417 6.22514469728e-07 0)
(0.000252130313533 7.25613275657e-07 0)
(0.000251844080986 8.40054504261e-07 0)
(0.000251519357063 9.66803043987e-07 0)
(0.000251154406135 1.10645865877e-06 0)
(0.000250748500627 1.25890014181e-06 0)
(0.000250302672652 1.42264964947e-06 0)
(0.00024982084561 1.59373722783e-06 0)
(0.000249311468501 1.76366626532e-06 0)
(0.000248789777815 1.91580880674e-06 0)
(0.000248280415498 2.01903449878e-06 0)
(0.000247820067125 2.01717304291e-06 0)
(0.000247456135102 1.81174664766e-06 0)
(0.000247241918371 1.24384634672e-06 0)
(0.000247201113978 8.20078826352e-08 0)
(0.000247323990874 -1.64260165203e-06 0)
(0.00029995130453 2.87612787984e-06 0)
(0.000299745475292 1.01368253209e-06 0)
(0.000299624080507 -3.95127104791e-07 0)
(0.000299622635928 -1.24331556804e-06 0)
(0.000299751401989 -1.69968003521e-06 0)
(0.000299986869466 -1.89990222942e-06 0)
(0.000300298354491 -1.94148411965e-06 0)
(0.000300655749358 -1.8886575816e-06 0)
(0.000301034470779 -1.78262410893e-06 0)
(0.000301416039936 -1.64915922036e-06 0)
(0.000301787486053 -1.50412567352e-06 0)
(0.000302140212508 -1.35708547945e-06 0)
(0.000302468897932 -1.21363066546e-06 0)
(0.000302770566603 -1.07685495354e-06 0)
(0.000303043867011 -9.48280111452e-07 0)
(0.00030328853298 -8.28438204288e-07 0)
(0.000303504990817 -7.17238626412e-07 0)
(0.000303694076479 -6.14200086429e-07 0)
(0.000303856833402 -5.18597434186e-07 0)
(0.000303994368477 -4.29554344398e-07 0)
(0.00030410774957 -3.46101259724e-07 0)
(0.000304197932616 -2.67210827157e-07 0)
(0.000304265709721 -1.91818622462e-07 0)
(0.000304311672246 -1.18834187763e-07 0)
(0.000304336184674 -4.71456841173e-08 0)
(0.000304339366464 2.43796089277e-08 0)
(0.000304321080116 9.689736164e-08 0)
(0.000304280924581 1.71589594998e-07 0)
(0.000304218233907 2.49668307185e-07 0)
(0.00030413208185 3.32378155135e-07 0)
(0.000304021294039 4.20996709908e-07 0)
(0.000303884470439 5.16830240202e-07 0)
(0.000303720022345 6.21201948499e-07 0)
(0.000303526230139 7.35427912861e-07 0)
(0.000303301330932 8.60773240194e-07 0)
(0.000303043649119 9.98376435338e-07 0)
(0.000302751788382 1.14912259857e-06 0)
(0.000302424910996 1.31343389348e-06 0)
(0.0003020631394 1.4909255682e-06 0)
(0.000301668125193 1.67984278162e-06 0)
(0.000301243836734 1.876139217e-06 0)
(0.00030079761236 2.07197468217e-06 0)
(0.000300341472392 2.25327554997e-06 0)
(0.000299893583298 2.39585110886e-06 0)
(0.000299479345585 2.4593064015e-06 0)
(0.000299131334693 2.37829256343e-06 0)
(0.000298884977671 2.05037868793e-06 0)
(0.000298769895478 1.32804771692e-06 0)
(0.000298783523008 2.26337964894e-08 0)
(0.000298886791203 -1.78163760522e-06 0)
(0.000348918983997 3.04934057401e-06 0)
(0.00034876789852 1.17163524644e-06 0)
(0.000348646296485 -3.15359028361e-07 0)
(0.000348601953725 -1.27688799297e-06 0)
(0.00034865765038 -1.8441065152e-06 0)
(0.000348807396122 -2.13421347816e-06 0)
(0.000349033026723 -2.23908852412e-06 0)
(0.000349312234303 -2.22449471069e-06 0)
(0.000349624056205 -2.13600683597e-06 0)
(0.000349950921879 -2.00433539686e-06 0)
(0.000350279197322 -1.84979361958e-06 0)
(0.000350598875678 -1.68556270858e-06 0)
(0.000350902977923 -1.52000488221e-06 0)
(0.000351186899733 -1.35824778252e-06 0)
(0.000351447822224 -1.20325608625e-06 0)
(0.000351684221904 -1.0565499699e-06 0)
(0.0003518954819 -9.18685412153e-07 0)
(0.000352081591815 -7.89574927559e-07 0)
(0.00035224291998 -6.68701684665e-07 0)
(0.000352380042513 -5.55262266172e-07 0)
(0.000352493615995 -4.48261499365e-07 0)
(0.000352584283222 -3.46574938869e-07 0)
(0.000352652603935 -2.48989437452e-07 0)
(0.000352699004457 -1.54228865885e-07 0)
(0.00035272374187 -6.09698480272e-08 0)
(0.000352726879676 3.2149029908e-08 0)
(0.000352708273063 1.265219427e-07 0)
(0.000352667562823 2.2357235807e-07 0)
(0.000352604177938 3.24749417225e-07 0)
(0.000352517347746 4.31522072241e-07 0)
(0.000352406125674 5.45368433125e-07 0)
(0.000352269427741 6.67756929116e-07 0)
(0.000352106090555 8.00114460452e-07 0)
(0.000351914955524 9.4377446076e-07 0)
(0.000351694988418 1.09989425531e-06 0)
(0.000351445446551 1.26932562818e-06 0)
(0.00035116610944 1.45241403254e-06 0)
(0.000350857592579 1.64868888419e-06 0)
(0.000350521766619 1.85638752313e-06 0)
(0.000350162303195 2.07172596973e-06 0)
(0.000349785357099 2.28778657551e-06 0)
(0.000349400363303 2.4928364413e-06 0)
(0.000349020846234 2.66781683891e-06 0)
(0.000348665004176 2.78270588742e-06 0)
(0.00034835549581 2.79140832954e-06 0)
(0.000348117619298 2.62535780613e-06 0)
(0.000347973930951 2.18612680724e-06 0)
(0.000347935034068 1.34422535248e-06 0)
(0.000347982640858 -4.8998115856e-08 0)
(0.000348064509339 -1.87533212392e-06 0)
(0.000395409906869 3.15592732123e-06 0)
(0.000395308737388 1.30103311345e-06 0)
(0.000395196589303 -2.20350386837e-07 0)
(0.000395125937954 -1.25862306338e-06 0)
(0.000395125450248 -1.91403942631e-06 0)
(0.000395201375092 -2.28483393131e-06 0)
(0.000395346086964 -2.4537594289e-06 0)
(0.000395545264874 -2.48422283648e-06 0)
(0.000395782896609 -2.42305252722e-06 0)
(0.000396043968313 -2.3037829205e-06 0)
(0.000396315712745 -2.14992585147e-06 0)
(0.000396587945325 -1.97764329345e-06 0)
(0.0003968529364 -1.79782016531e-06 0)
(0.00039710507455 -1.61759725197e-06 0)
(0.000397340470982 -1.44147941399e-06 0)
(0.000397556578527 -1.27212385472e-06 0)
(0.000397751857278 -1.11089587973e-06 0)
(0.000397925495908 -9.58258577725e-07 0)
(0.000398077186747 -8.14045176888e-07 0)
(0.000398206948094 -6.77648937814e-07 0)
(0.000398314986051 -5.48155209329e-07 0)
(0.000398401588517 -4.24432947111e-07 0)
(0.000398467044985 -3.05197860522e-07 0)
(0.000398511587061 -1.8905581245e-07 0)
(0.000398535345759 -7.45326840579e-08 0)
(0.000398538322776 3.99046742919e-08 0)
(0.000398520373972 1.55832793308e-07 0)
(0.000398481204193 2.74858171365e-07 0)
(0.000398420373536 3.98603203343e-07 0)
(0.000398337316068 5.28688376291e-07 0)
(0.000398231373054 6.66707067698e-07 0)
(0.000398101843896 8.14188237257e-07 0)
(0.000397948059294 9.72540593868e-07 0)
(0.000397769482673 1.142969229e-06 0)
(0.000397565847572 1.32635184064e-06 0)
(0.000397337340343 1.52305597372e-06 0)
(0.000397084838685 1.73267045132e-06 0)
(0.000396810216405 1.95361238633e-06 0)
(0.000396516721436 2.18255476779e-06 0)
(0.000396209424365 2.41359795247e-06 0)
(0.000395895712358 2.63708131876e-06 0)
(0.000395585760133 2.83790478709e-06 0)
(0.000395292828271 2.99320828565e-06 0)
(0.00039503311466 3.06929581702e-06 0)
(0.000394824674821 3.01775474676e-06 0)
(0.000394684738707 2.77128239828e-06 0)
(0.000394624513084 2.23990756208e-06 0)
(0.000394640887217 1.31368773788e-06 0)
(0.0003947073452 -1.22441023413e-07 0)
(0.000394767142288 -1.93068779681e-06 0)
(0.000439378567795 3.20551130196e-06 0)
(0.000439322677183 1.40001774716e-06 0)
(0.000439225796337 -1.21954809107e-07 0)
(0.000439141340332 -1.20484331916e-06 0)
(0.000439099801021 -1.92466343616e-06 0)
(0.000439115423702 -2.3623020601e-06 0)
(0.000439188705501 -2.5901464851e-06 0)
(0.00043931246084 -2.66690647021e-06 0)
(0.000439475894275 -2.6383178802e-06 0)
(0.000439667380407 -2.53884839988e-06 0)
(0.000439876031545 -2.39387039642e-06 0)
(0.000440092451839 -2.22167234226e-06 0)
(0.000440308977626 -2.03517254455e-06 0)
(0.000440519628716 -1.84328624022e-06 0)
(0.000440719917305 -1.65197960523e-06 0)
(0.000440906603132 -1.46506283575e-06 0)
(0.00044107744425 -1.28477798527e-06 0)
(0.00044123096807 -1.11223024511e-06 0)
(0.000441366272861 -9.47702263677e-07 0)
(0.000441482861935 -7.90882172767e-07 0)
(0.000441580508788 -6.41028484136e-07 0)
(0.000441659149798 -4.97089084971e-07 0)
(0.000441718800716 -3.57787091165e-07 0)
(0.000441759493421 -2.21683031331e-07 0)
(0.000441781230015 -8.72205042912e-08 0)
(0.000441783952065 4.7239153504e-08 0)
(0.000441767523534 1.83388690791e-07 0)
(0.000441731726763 3.22949317268e-07 0)
(0.000441676271669 4.67643864221e-07 0)
(0.000441600819115 6.19164725929e-07 0)
(0.000441505020334 7.79131933918e-07 0)
(0.000441388575142 9.49035557468e-07 0)
(0.000441251312637 1.13015483295e-06 0)
(0.000441093298934 1.32344380342e-06 0)
(0.000440914977167 1.5293695179e-06 0)
(0.000440717345022 1.74768365255e-06 0)
(0.000440502174044 1.97710142487e-06 0)
(0.000440272271504 2.21485252051e-06 0)
(0.000440031778147 2.45605743989e-06 0)
(0.000439786480516 2.69287013451e-06 0)
(0.00043954409063 2.91331623277e-06 0)
(0.00043931440258 3.0997537284e-06 0)
(0.000439109170152 3.22689659429e-06 0)
(0.000438941454004 3.2594184084e-06 0)
(0.000438824095187 3.14925754524e-06 0)
(0.000438766811993 2.83323283704e-06 0)
(0.000438771793117 2.23170292966e-06 0)
(0.000438826740613 1.25313016059e-06 0)
(0.000438901710009 -1.90824851736e-07 0)
(0.000438939793497 -1.95297519116e-06 0)
(0.000480796067152 3.20583376911e-06 0)
(0.000480781061957 1.46857542968e-06 0)
(0.000480702552057 -2.8011429602e-08 0)
(0.000480613171492 -1.12836808114e-06 0)
(0.000480542921102 -1.88994319152e-06 0)
(0.000480510947832 -2.37867239167e-06 0)
(0.000480523643551 -2.65668599032e-06 0)
(0.000480579714194 -2.77684923146e-06 0)
(0.000480673226516 -2.78225242726e-06 0)
(0.000480796172864 -2.70681203503e-06 0)
(0.000480940085487 -2.57655236312e-06 0)
(0.000481097005612 -2.41100044962e-06 0)
(0.000481259968517 -2.22450741941e-06 0)
(0.000481423180029 -2.0273892285e-06 0)
(0.000481582007332 -1.82686484791e-06 0)
(0.000481732870601 -1.62780221553e-06 0)
(0.000481873090476 -1.43329853141e-06 0)
(0.000482000724517 -1.24512484036e-06 0)
(0.000482114411024 -1.06406309847e-06 0)
(0.000482213229335 -8.90159882967e-07 0)
(0.000482296580195 -7.22916472256e-07 0)
(0.0004823640867 -5.61430948049e-07 0)
(0.000482415514807 -4.04504569384e-07 0)
(0.000482450711793 -2.50721990002e-07 0)
(0.000482469561016 -9.85128650589e-08 0)
(0.000482471951596 5.37990462071e-08 0)
(0.000482457762078 2.07954131434e-07 0)
(0.000482426857699 3.65717905477e-07 0)
(0.000482379101467 5.28840227755e-07 0)
(0.000482314379868 6.99008018703e-07 0)
(0.000482232644653 8.7778606909e-07 0)
(0.000482133972714 1.0665394132e-06 0)
(0.000482018646506 1.26632902904e-06 0)
(0.000481887257654 1.47777026515e-06 0)
(0.000481740836069 1.70084018155e-06 0)
(0.000481581005651 1.93461584149e-06 0)
(0.000481410164844 2.17692045978e-06 0)
(0.00048123168488 2.42384839283e-06 0)
(0.000481050109049 2.66913394734e-06 0)
(0.00048087132056 2.90332470213e-06 0)
(0.00048070262242 3.112720592e-06 0)
(0.000480552636681 3.27805334296e-06 0)
(0.000480430886424 3.37291282831e-06 0)
(0.000480346858825 3.36201280398e-06 0)
(0.000480308346898 3.19949100231e-06 0)
(0.000480318703367 2.82781845871e-06 0)
(0.000480373414645 2.17794593194e-06 0)
(0.000480454409964 1.17448557679e-06 0)
(0.000480531167166 -2.50222804707e-07 0)
(0.000480548586634 -1.94656056668e-06 0)
(0.000519643949071 3.16324914893e-06 0)
(0.00051966573607 1.50777866143e-06 0)
(0.00051960690238 5.65708584549e-08 0)
(0.000519518637178 -1.03877785296e-06 0)
(0.000519429239751 -1.82166110754e-06 0)
(0.000519360630801 -2.34555049808e-06 0)
(0.000519323277517 -2.66312266992e-06 0)
(0.00051932050334 -2.82106022627e-06 0)
(0.000519350590552 -2.85891509213e-06 0)
(0.00051940899846 -2.80900213681e-06 0)
(0.000519489860238 -2.69701871506e-06 0)
(0.000519587015185 -2.54292367024e-06 0)
(0.000519694627217 -2.36188955645e-06 0)
(0.000519807515248 -2.1652004261e-06 0)
(0.000519921286779 -1.96104195808e-06 0)
(0.000520032349155 -1.75516573552e-06 0)
(0.000520137850656 -1.55143134984e-06 0)
(0.000520235586822 -1.35223964287e-06 0)
(0.0005203238945 -1.15887392681e-06 0)
(0.000520401547136 -9.71765991394e-07 0)
(0.000520467658867 -7.90702113914e-07 0)
(0.000520521601154 -6.14982126553e-07 0)
(0.000520562933453 -4.43542428461e-07 0)
(0.000520591348177 -2.7505193675e-07 0)
(0.000520606629621 -1.07988424416e-07 0)
(0.000520608626376 5.92984628414e-08 0)
(0.000520597236869 2.28532005843e-07 0)
(0.000520572407929 4.01455958908e-07 0)
(0.000520534146611 5.79779863057e-07 0)
(0.000520482545871 7.65116901946e-07 0)
(0.000520417825014 9.58908452752e-07 0)
(0.00052034038602 1.16232848828e-06 0)
(0.000520250886831 1.37615952634e-06 0)
(0.000520150332267 1.60062990074e-06 0)
(0.000520040182111 1.83519969292e-06 0)
(0.000519922473779 2.07827979367e-06 0)
(0.000519799953144 2.32686546395e-06 0)
(0.000519676200886 2.57606298101e-06 0)
(0.000519555732027 2.81848650603e-06 0)
(0.000519444032015 3.0435042792e-06 0)
(0.000519347473287 3.23632163185e-06 0)
(0.000519273029829 3.3769095891e-06 0)
(0.000519227683764 3.43882546939e-06 0)
(0.000519217376745 3.38805025062e-06 0)
(0.000519245419966 3.182049223e-06 0)
(0.000519310083182 2.76953972861e-06 0)
(0.000519402115083 2.09144817186e-06 0)
(0.000519500072207 1.08601985246e-06 0)
(0.000519574424768 -2.98623973233e-07 0)
(0.000519572611502 -1.91511189817e-06 0)
(0.000555910553604 3.08308566256e-06 0)
(0.000555965359168 1.51931839639e-06 0)
(0.000555926352359 1.28960535652e-07 0)
(0.000555843136849 -9.42960813236e-07 0)
(0.000555741767101 -1.72925144759e-06 0)
(0.000555645536743 -2.27318459639e-06 0)
(0.000555567601941 -2.61907143308e-06 0)
(0.000555514770188 -2.80756701139e-06 0)
(0.000555488808544 -2.87427937142e-06 0)
(0.000555488288716 -2.84925270451e-06 0)
(0.000555509885409 -2.75712981505e-06 0)
(0.000555549372849 -2.61763186585e-06 0)
(0.000555602290584 -2.44619460563e-06 0)
(0.000555664362985 -2.25463631758e-06 0)
(0.000555731732694 -2.05179145101e-06 0)
(0.000555801066371 -1.84407540364e-06 0)
(0.000555869577147 -1.63596837749e-06 0)
(0.000555934996997 -1.430418663e-06 0)
(0.000555995522206 -1.22917234046e-06 0)
(0.000556049747454 -1.03303919083e-06 0)
(0.000556096598456 -8.42105252161e-07 0)
(0.000556135269197 -6.55901989169e-07 0)
(0.000556165167207 -4.73541067851e-07 0)
(0.000556185868707 -2.93822660739e-07 0)
(0.000556197084505 -1.15324204768e-07 0)
(0.000556198637015 6.35242585079e-08 0)
(0.000556190448574 2.44372610372e-07 0)
(0.000556172541239 4.28885796259e-07 0)
(0.000556145048291 6.18676381398e-07 0)
(0.000556108237774 8.15229085152e-07 0)
(0.00055606254844 1.01981133441e-06 0)
(0.000556008638283 1.23336307279e-06 0)
(0.000555947445459 1.45635794472e-06 0)
(0.000555880260478 1.68862660212e-06 0)
(0.000555808806943 1.9291313052e-06 0)
(0.00055573532548 2.17567941769e-06 0)
(0.000555662651396 2.42456216705e-06 0)
(0.000555594270488 2.67010485161e-06 0)
(0.000555534328886 2.90411660142e-06 0)
(0.00055548756122 3.11523374315e-06 0)
(0.000555459087734 3.28816315633e-06 0)
(0.000555454013791 3.40285537009e-06 0)
(0.000555476758068 3.43367263374e-06 0)
(0.000555530009576 3.34868072973e-06 0)
(0.000555613312708 3.10925002283e-06 0)
(0.00055572104399 2.67034569683e-06 0)
(0.000555840747514 1.9818544282e-06 0)
(0.000555949214041 9.93286405875e-07 0)
(0.000556018681423 -3.35259098668e-07 0)
(0.00055599923829 -1.8617723791e-06 0)
(0.000589588740544 2.96988863693e-06 0)
(0.00058967310208 1.50519669499e-06 0)
(0.000589653349684 1.87743129471e-07 0)
(0.000589577601357 -8.45723675497e-07 0)
(0.000589469509878 -1.62003941489e-06 0)
(0.000589352855087 -2.17021332347e-06 0)
(0.000589242473516 -2.53333035601e-06 0)
(0.000589147722665 -2.74443966759e-06 0)
(0.000589073154688 -2.83512878484e-06 0)
(0.000589020016455 -2.8328017233e-06 0)
(0.000588987323419 -2.76054856979e-06 0)
(0.000588972764669 -2.63733571646e-06 0)
(0.000588973356859 -2.47838975126e-06 0)
(0.00058898590134 -2.29566530926e-06 0)
(0.000589007278344 -2.09833018881e-06 0)
(0.000589034620377 -1.89322627735e-06 0)
(0.000589065399458 -1.68528495931e-06 0)
(0.000589097456655 -1.47788840206e-06 0)
(0.000589128995352 -1.27317608206e-06 0)
(0.000589158553823 -1.07230036723e-06 0)
(0.000589184968001 -8.7563716286e-07 0)
(0.000589207331735 -6.82958459872e-07 0)
(0.000589224959303 -4.93573668295e-07 0)
(0.000589237353161 -3.06446297548e-07 0)
(0.000589244178749 -1.20292088666e-07 0)
(0.000589245247433 6.63357310765e-08 0)
(0.000589240508228 2.5496872889e-07 0)
(0.000589230048699 4.47147914151e-07 0)
(0.000589214105245 6.44345576799e-07 0)
(0.000589193082855 8.47878944153e-07 0)
(0.000589167584158 1.05880987829e-06 0)
(0.000589138447176 1.27782425852e-06 0)
(0.000589106790473 1.50508396127e-06 0)
(0.000589074063208 1.74004353764e-06 0)
(0.000589042095758 1.98122293621e-06 0)
(0.000589013143839 2.22592719193e-06 0)
(0.000588989915172 2.46990427894e-06 0)
(0.000588975562405 2.7069340161e-06 0)
(0.000588973619189 2.92834496508e-06 0)
(0.000588987847905 3.12246417137e-06 0)
(0.000589021959226 3.27401798829e-06 0)
(0.000589079154017 3.36352402814e-06 0)
(0.000589161442349 3.36674383451e-06 0)
(0.000589268675862 3.25431330127e-06 0)
(0.000589397350242 2.99170244417e-06 0)
(0.000589538953581 2.53978976521e-06 0)
(0.000589678960299 1.85629157756e-06 0)
(0.000589793428158 8.9992531913e-07 0)
(0.000589856666069 -3.60120759205e-07 0)
(0.000589821238556 -1.78926152565e-06 0)
(0.000620674424165 2.82759896186e-06 0)
(0.00062078516491 1.46754628949e-06 0)
(0.00062078365148 2.32459168583e-07 0)
(0.000620716710728 -7.50309207649e-07 0)
(0.000620605650503 -1.49958498385e-06 0)
(0.000620474200029 -2.04370635567e-06 0)
(0.000620338168071 -2.41360211727e-06 0)
(0.000620208728883 -2.63925482142e-06 0)
(0.000620092604895 -2.74835835344e-06 0)
(0.00061999327265 -2.76552423974e-06 0)
(0.000619911818455 -2.71198042846e-06 0)
(0.000619847727161 -2.60556455375e-06 0)
(0.000619799488171 -2.4609177271e-06 0)
(0.000619765053275 -2.28978875928e-06 0)
(0.000619742159827 -2.10138833216e-06 0)
(0.000619728547244 -1.90275114932e-06 0)
(0.000619722091718 -1.69908059977e-06 0)
(0.000619720881703 -1.49406197514e-06 0)
(0.000619723252483 -1.29013831974e-06 0)
(0.000619727794083 -1.08874811286e-06 0)
(0.000619733343194 -8.90527083463e-07 0)
(0.000619738966795 -6.95478147572e-07 0)
(0.000619743942886 -5.03114286212e-07 0)
(0.00061974774202 -3.12579458073e-07 0)
(0.000619750012086 -1.22752670193e-07 0)
(0.000619750567942 6.76597791702e-08 0)
(0.000619749386874 2.60038963296e-07 0)
(0.000619746610431 4.557700237e-07 0)
(0.000619742552848 6.56155970096e-07 0)
(0.000619737715859 8.62323496646e-07 0)
(0.000619732809343 1.07511545866e-06 0)
(0.000619728776554 1.29496429976e-06 0)
(0.00061972682185 1.52174035681e-06 0)
(0.000619728437484 1.75456866881e-06 0)
(0.000619735424208 1.99160786666e-06 0)
(0.000619749897881 2.22978518455e-06 0)
(0.000619774270909 2.46448299066e-06 0)
(0.000619811193144 2.68917508989e-06 0)
(0.000619863431923 2.89501614757e-06 0)
(0.000619933665509 3.07039596721e-06 0)
(0.000620024160257 3.20048295441e-06 0)
(0.000620136297482 3.26679952277e-06 0)
(0.000620269927369 3.24689475485e-06 0)
(0.000620422511077 3.11421275757e-06 0)
(0.000620588143669 2.83827292821e-06 0)
(0.000620756226692 2.38536990507e-06 0)
(0.000620910973456 1.71995593812e-06 0)
(0.000621028344646 8.08244121841e-07 0)
(0.000621084755407 -3.73659052249e-07 0)
(0.000621034959473 -1.69995540976e-06 0)
(0.000649165595401 2.65968504896e-06 0)
(0.000649299791902 1.40852694328e-06 0)
(0.000649315237519 2.63285960774e-07 0)
(0.000649257684879 -6.58805458927e-07 0)
(0.000649146264138 -1.3720288034e-06 0)
(0.000649004348887 -1.8993356149e-06 0)
(0.000648848238763 -2.26644676812e-06 0)
(0.000648690368493 -2.49884421481e-06 0)
(0.0006485391182 -2.62056777705e-06 0)
(0.000648399780975 -2.65343077202e-06 0)
(0.000648275222902 -2.61663376733e-06 0)
(0.000648166550764 -2.526633546e-06 0)
(0.000648073651623 -2.3972014882e-06 0)
(0.000647995627472 -2.23960089495e-06 0)
(0.000647931123879 -2.06283206631e-06 0)
(0.000647878569377 -1.87390647161e-06 0)
(0.000647836341795 -1.67812397664e-06 0)
(0.000647802878199 -1.47933670349e-06 0)
(0.000647776742988 -1.28019039512e-06 0)
(0.000647756666318 -1.08233928773e-06 0)
(0.000647741562492 -8.86633929271e-07 0)
(0.000647730535716 -6.9328358514e-07 0)
(0.000647722878707 -5.01996179934e-07 0)