/*--------------------------------*- C++ -*----------------------------------*\
| =========                 |                                                 |
| \\      /  F ield         | OpenFOAM: The Open Source CFD Toolbox           |
|  \\    /   O peration     | Version:  2.4.0                                 |
|   \\  /    A nd           | Web:      www.OpenFOAM.org                      |
|    \\/     M anipulation  |                                                 |
\*---------------------------------------------------------------------------*/
FoamFile
{
    version     2.0;
    format      ascii;
    class       volVectorField;
    location    "0.9";
    object      U;
}
// * * * * * * * * * * * * * * * * * * * * * * * * * * * * * * * * * * * * * //

dimensions      [0 1 -1 0 0 0 0];

internalField   nonuniform List<vector> 
400
(
(-1.1930554727e-06 7.6327832943e-17 0)
(-1.19305547273e-06 1.07552855511e-16 0)
(-1.19305547274e-06 -3.12250225676e-17 0)
(-1.19305547274e-06 4.85722573274e-17 0)
(-1.19305547282e-06 1.04083408559e-17 0)
(-1.19305547273e-06 1.7694179455e-16 0)
(-1.1930554726e-06 1.52655665886e-16 0)
(-1.19305547257e-06 1.21430643318e-16 0)
(-1.19305547255e-06 1.31838984174e-16 0)
(-1.19305547257e-06 1.28369537222e-16 0)
(-1.19305547254e-06 4.85722573274e-17 0)
(-1.19305547273e-06 4.16333634234e-17 0)
(-1.19305547261e-06 7.6327832943e-17 0)
(-1.19305547249e-06 7.2858385991e-17 0)
(-1.19305547258e-06 2.77555756156e-17 0)
(-1.19305547256e-06 -1.04083408559e-17 0)
(-1.19305547255e-06 -3.46944695195e-17 0)
(-1.1930554727e-06 -3.46944695195e-18 0)
(-1.19305547282e-06 -4.85722573274e-17 0)
(-1.19305547271e-06 4.85722573274e-17 0)
(-4.54425318481e-06 1.56125112838e-16 0)
(-4.54425318485e-06 2.87964097012e-16 0)
(-4.5442531848e-06 2.74086309204e-16 0)
(-4.54425318491e-06 1.97758476261e-16 0)
(-4.54425318491e-06 1.7694179455e-16 0)
(-4.54425318486e-06 3.15719672628e-16 0)
(-4.54425318476e-06 2.87964097012e-16 0)
(-4.5442531847e-06 3.95516952523e-16 0)
(-4.5442531847e-06 4.05925293379e-16 0)
(-4.54425318458e-06 3.81639164715e-16 0)
(-4.54425318462e-06 2.77555756156e-16 0)
(-4.54425318477e-06 1.94289029309e-16 0)
(-4.54425318465e-06 2.32452945781e-16 0)
(-4.54425318443e-06 3.81639164715e-16 0)
(-4.54425318442e-06 2.39391839685e-16 0)
(-4.54425318438e-06 1.31838984174e-16 0)
(-4.54425318451e-06 5.55111512313e-17 0)
(-4.54425318478e-06 -1.38777878078e-17 0)
(-4.54425318481e-06 -7.6327832943e-17 0)
(-4.54425318475e-06 1.73472347598e-16 0)
(-1.14402119083e-05 3.12250225676e-16 0)
(-1.14402119084e-05 3.43475248243e-16 0)
(-1.14402119085e-05 3.40005801291e-16 0)
(-1.14402119085e-05 3.05311331772e-16 0)
(-1.14402119084e-05 3.53883589099e-16 0)
(-1.14402119084e-05 3.74700270811e-16 0)
(-1.14402119083e-05 3.46944695195e-16 0)
(-1.14402119082e-05 4.2674197509e-16 0)
(-1.14402119082e-05 3.50414142147e-16 0)
(-1.14402119083e-05 3.81639164715e-16 0)
(-1.14402119082e-05 3.05311331772e-16 0)
(-1.14402119081e-05 2.49800180541e-16 0)
(-1.1440211908e-05 2.53269627493e-16 0)
(-1.14402119079e-05 2.98372437868e-16 0)
(-1.14402119079e-05 2.91433543964e-16 0)
(-1.14402119079e-05 2.46330733589e-16 0)
(-1.1440211908e-05 1.21430643318e-16 0)
(-1.14402119081e-05 2.42861286637e-17 0)
(-1.14402119081e-05 1.38777878078e-16 0)
(-1.14402119083e-05 1.04083408559e-16 0)
(-2.34694787446e-05 3.3653635434e-16 0)
(-2.34694787446e-05 2.53269627493e-16 0)
(-2.34694787446e-05 3.53883589099e-16 0)
(-2.34694787444e-05 3.53883589099e-16 0)
(-2.34694787444e-05 3.0184188482e-16 0)
(-2.34694787446e-05 3.71230823859e-16 0)
(-2.34694787444e-05 3.85108611667e-16 0)
(-2.34694787443e-05 2.35922392733e-16 0)
(-2.34694787443e-05 2.46330733589e-16 0)
(-2.34694787444e-05 2.08166817117e-16 0)
(-2.34694787442e-05 1.63064006742e-16 0)
(-2.34694787442e-05 1.49186218934e-16 0)
(-2.34694787442e-05 2.42861286637e-16 0)
(-2.34694787442e-05 2.8449465006e-16 0)
(-2.34694787441e-05 2.46330733589e-16 0)
(-2.3469478744e-05 2.15105711021e-16 0)
(-2.34694787442e-05 6.24500451352e-17 0)
(-2.34694787443e-05 6.24500451352e-17 0)
(-2.34694787443e-05 1.11022302463e-16 0)
(-2.34694787445e-05 1.21430643318e-16 0)
(-3.85235885318e-05 2.22044604925e-16 0)
(-3.85235885317e-05 3.05311331772e-16 0)
(-3.85235885317e-05 2.94902990916e-16 0)
(-3.85235885317e-05 2.46330733589e-16 0)
(-3.85235885315e-05 1.45716771982e-16 0)
(-3.85235885316e-05 2.04697370165e-16 0)
(-3.85235885316e-05 2.11636264069e-16 0)
(-3.85235885315e-05 1.28369537222e-16 0)
(-3.85235885315e-05 4.51028103754e-17 0)
(-3.85235885315e-05 1.07552855511e-16 0)
(-3.85235885315e-05 5.89805981832e-17 0)
(-3.85235885312e-05 6.93889390391e-18 0)
(-3.85235885312e-05 1.14491749414e-16 0)
(-3.85235885313e-05 1.56125112838e-16 0)
(-3.85235885314e-05 1.7694179455e-16 0)
(-3.85235885314e-05 1.31838984174e-16 0)
(-3.85235885316e-05 3.81639164715e-17 0)
(-3.85235885317e-05 1.94289029309e-16 0)
(-3.85235885316e-05 1.21430643318e-16 0)
(-3.85235885316e-05 6.24500451352e-17 0)
(-4.54292539276e-05 3.29597460436e-16 0)
(-4.54292539276e-05 2.81025203108e-16 0)
(-4.54292539276e-05 2.35922392733e-16 0)
(-4.54292539277e-05 1.45716771982e-16 0)
(-4.54292539277e-05 1.83880688454e-16 0)
(-4.54292539276e-05 1.87350135406e-16 0)
(-4.54292539277e-05 1.07552855511e-16 0)
(-4.54292539278e-05 1.49186218934e-16 0)
(-4.54292539277e-05 1.31838984174e-16 0)
(-4.54292539277e-05 1.66533453694e-16 0)
(-4.54292539276e-05 2.56739074445e-16 0)
(-4.54292539274e-05 1.94289029309e-16 0)
(-4.54292539274e-05 2.11636264069e-16 0)
(-4.54292539273e-05 5.89805981832e-17 0)
(-4.54292539274e-05 1.28369537222e-16 0)
(-4.54292539276e-05 6.93889390391e-17 0)
(-4.54292539275e-05 2.49800180541e-16 0)
(-4.54292539275e-05 2.28983498829e-16 0)
(-4.54292539277e-05 3.05311331772e-16 0)
(-4.54292539277e-05 2.74086309204e-16 0)
(-1.46571178703e-05 2.01227923213e-16 0)
(-1.46571178703e-05 1.80411241502e-16 0)
(-1.46571178703e-05 2.08166817117e-16 0)
(-1.46571178702e-05 1.63064006742e-16 0)
(-1.46571178701e-05 7.97972798949e-17 0)
(-1.46571178702e-05 6.59194920871e-17 0)
(-1.46571178704e-05 0 0)
(-1.46571178703e-05 1.38777878078e-16 0)
(-1.46571178703e-05 1.94289029309e-16 0)
(-1.46571178702e-05 2.08166817117e-16 0)
(-1.46571178702e-05 2.63677968348e-16 0)
(-1.46571178701e-05 1.49186218934e-16 0)
(-1.46571178702e-05 6.59194920871e-17 0)
(-1.46571178701e-05 -2.42861286637e-17 0)
(-1.465711787e-05 3.81639164715e-17 0)
(-1.46571178701e-05 1.45716771982e-16 0)
(-1.46571178701e-05 2.46330733589e-16 0)
(-1.46571178702e-05 1.83880688454e-16 0)
(-1.46571178701e-05 2.87964097012e-16 0)
(-1.46571178701e-05 2.39391839685e-16 0)
(0.000115164713717 1.11022302463e-16 0)
(0.000115164713717 8.32667268469e-17 0)
(0.000115164713717 1.4224732503e-16 0)
(0.000115164713717 1.56125112838e-16 0)
(0.000115164713717 1.28369537222e-16 0)
(0.000115164713717 9.02056207508e-17 0)
(0.000115164713717 7.97972798949e-17 0)
(0.000115164713717 1.80411241502e-16 0)
(0.000115164713717 9.36750677028e-17 0)
(0.000115164713717 7.97972798949e-17 0)
(0.000115164713717 9.02056207508e-17 0)
(0.000115164713717 2.42861286637e-17 0)
(0.000115164713717 5.89805981832e-17 0)
(0.000115164713717 9.02056207508e-17 0)
(0.000115164713717 1.97758476261e-16 0)
(0.000115164713717 1.07552855511e-16 0)
(0.000115164713717 4.51028103754e-17 0)
(0.000115164713717 2.42861286637e-17 0)
(0.000115164713717 1.28369537222e-16 0)
(0.000115164713717 8.32667268469e-17 0)
(0.000453818324447 2.42861286637e-17 0)
(0.000453818324447 1.21430643318e-16 0)
(0.000453818324447 1.14491749414e-16 0)
(0.000453818324447 -1.04083408559e-17 0)
(0.000453818324447 4.16333634234e-17 0)
(0.000453818324447 2.08166817117e-17 0)
(0.000453818324447 2.46330733589e-16 0)
(0.000453818324447 6.93889390391e-18 0)
(0.000453818324447 9.36750677028e-17 0)
(0.000453818324447 6.93889390391e-18 0)
(0.000453818324447 -5.89805981832e-17 0)
(0.000453818324447 -2.32452945781e-16 0)
(0.000453818324447 -8.32667268469e-17 0)
(0.000453818324447 -1.38777878078e-17 0)
(0.000453818324447 3.46944695195e-17 0)
(0.000453818324447 1.11022302463e-16 0)
(0.000453818324447 -5.55111512313e-17 0)
(0.000453818324447 -6.93889390391e-17 0)
(0.000453818324447 -1.38777878078e-17 0)
(0.000453818324447 6.93889390391e-18 0)
(0.00117605973172 -7.6327832943e-17 0)
(0.00117605973172 -3.46944695195e-18 0)
(0.00117605973172 -5.89805981832e-17 0)
(0.00117605973172 -1.07552855511e-16 0)
(0.00117605973172 -9.02056207508e-17 0)
(0.00117605973172 7.2858385991e-17 0)
(0.00117605973172 6.59194920871e-17 0)
(0.00117605973172 -4.85722573274e-17 0)
(0.00117605973172 -7.97972798949e-17 0)
(0.00117605973172 -1.38777878078e-17 0)
(0.00117605973172 -1.17961196366e-16 0)
(0.00117605973172 -1.90819582357e-16 0)
(0.00117605973172 -1.28369537222e-16 0)
(0.00117605973172 -1.90819582357e-16 0)
(0.00117605973172 -1.14491749414e-16 0)
(0.00117605973172 1.17961196366e-16 0)
(0.00117605973172 -6.24500451352e-17 0)
(0.00117605973172 -1.28369537222e-16 0)
(0.00117605973172 -1.5959455979e-16 0)
(0.00117605973172 -8.32667268469e-17 0)
(0.00253298647505 -1.73472347598e-16 0)
(0.00253298647505 -2.04697370165e-16 0)
(0.00253298647505 -1.45716771982e-16 0)
(0.00253298647505 -1.11022302463e-16 0)
(0.00253298647505 -1.35308431126e-16 0)
(0.00253298647505 -7.2858385991e-17 0)
(0.00253298647505 -7.2858385991e-17 0)
(0.00253298647505 1.73472347598e-17 0)
(0.00253298647505 -1.11022302463e-16 0)
(0.00253298647505 6.93889390391e-18 0)
(0.00253298647505 6.93889390391e-18 0)
(0.00253298647505 -3.12250225676e-17 0)
(0.00253298647505 -1.11022302463e-16 0)
(0.00253298647505 -1.04083408559e-16 0)
(0.00253298647505 -2.08166817117e-17 0)
(0.00253298647505 8.32667268469e-17 0)
(0.00253298647505 -1.04083408559e-16 0)
(0.00253298647505 -5.20417042793e-17 0)
(0.00253298647505 -3.46944695195e-17 0)
(0.00253298647505 -4.85722573274e-17 0)
(0.00485161719704 -2.63677968348e-16 0)
(0.00485161719704 -3.3653635434e-16 0)
(0.00485161719704 -2.46330733589e-16 0)
(0.00485161719704 -2.74086309204e-16 0)
(0.00485161719704 -1.66533453694e-16 0)
(0.00485161719704 -1.7694179455e-16 0)
(0.00485161719704 -1.38777878078e-16 0)
(0.00485161719704 -1.21430643318e-16 0)
(0.00485161719704 -2.77555756156e-17 0)
(0.00485161719704 8.32667268469e-17 0)
(0.00485161719704 1.70002900646e-16 0)
(0.00485161719704 7.97972798949e-17 0)
(0.00485161719704 -6.24500451352e-17 0)
(0.00485161719704 -4.51028103754e-17 0)
(0.00485161719704 -3.81639164715e-17 0)
(0.00485161719704 1.38777878078e-16 0)
(0.00485161719704 -8.32667268469e-17 0)
(0.00485161719704 -3.46944695195e-17 0)
(0.00485161719704 -1.73472347598e-17 0)
(0.00485161719704 -8.67361737988e-17 0)
(0.00851638945478 -1.11022302463e-16 0)
(0.00851638945478 -1.7694179455e-16 0)
(0.00851638945478 -1.14491749414e-16 0)
(0.00851638945478 -2.15105711021e-16 0)
(0.00851638945478 -5.89805981832e-17 0)
(0.00851638945478 -7.2858385991e-17 0)
(0.00851638945478 -1.52655665886e-16 0)
(0.00851638945478 2.42861286637e-17 0)
(0.00851638945478 1.87350135406e-16 0)
(0.00851638945478 2.04697370165e-16 0)
(0.00851638945478 2.32452945781e-16 0)
(0.00851638945478 2.08166817117e-16 0)
(0.00851638945478 8.32667268469e-17 0)
(0.00851638945478 1.07552855511e-16 0)
(0.00851638945478 1.21430643318e-16 0)
(0.00851638945478 1.4224732503e-16 0)
(0.00851638945478 -2.77555756156e-17 0)
(0.00851638945478 -1.38777878078e-17 0)
(0.00851638945478 -1.87350135406e-16 0)
(0.00851638945478 -7.2858385991e-17 0)
(0.0139290078888 -1.31838984174e-16 0)
(0.0139290078888 -1.28369537222e-16 0)
(0.0139290078888 -6.24500451352e-17 0)
(0.0139290078888 -1.00613961607e-16 0)
(0.0139290078888 -1.04083408559e-17 0)
(0.0139290078888 -1.35308431126e-16 0)
(0.0139290078888 -9.02056207508e-17 0)
(0.0139290078888 7.97972798949e-17 0)
(0.0139290078888 2.91433543964e-16 0)
(0.0139290078888 1.94289029309e-16 0)
(0.0139290078888 4.51028103754e-17 0)
(0.0139290078888 9.71445146547e-17 0)
(0.0139290078888 6.59194920871e-17 0)
(0.0139290078888 1.56125112838e-16 0)
(0.0139290078888 1.17961196366e-16 0)
(0.0139290078888 3.81639164715e-17 0)
(0.0139290078888 3.46944695195e-18 0)
(0.0139290078888 -7.2858385991e-17 0)
(0.0139290078888 -3.26128013484e-16 0)
(0.0139290078888 -9.02056207508e-17 0)
(0.0214482279119 -4.85722573274e-17 0)
(0.0214482279119 -2.56739074445e-16 0)
(0.0214482279119 -6.93889390391e-18 0)
(0.0214482279119 1.04083408559e-17 0)
(0.0214482279119 -1.00613961607e-16 0)
(0.0214482279119 -9.02056207508e-17 0)
(0.0214482279119 2.42861286637e-17 0)
(0.0214482279119 -3.46944695195e-18 0)
(0.0214482279119 1.97758476261e-16 0)
(0.0214482279119 -1.04083408559e-17 0)
(0.0214482279119 -6.59194920871e-17 0)
(0.0214482279119 -2.08166817117e-17 0)
(0.0214482279119 6.59194920871e-17 0)
(0.0214482279119 6.93889390391e-18 0)
(0.0214482279119 6.93889390391e-18 0)
(0.0214482279119 2.08166817117e-17 0)
(0.0214482279119 -3.81639164715e-17 0)
(0.0214482279119 -1.90819582357e-16 0)
(0.0214482279119 -3.53883589099e-16 0)
(0.0214482279119 -2.08166817117e-16 0)
(0.0313177024751 1.38777878078e-17 0)
(0.0313177024751 0 0)
(0.0313177024751 -1.07552855511e-16 0)
(0.0313177024751 2.08166817117e-17 0)
(0.0313177024751 -1.87350135406e-16 0)
(0.0313177024751 9.71445146547e-17 0)
(0.0313177024751 -6.93889390391e-18 0)
(0.0313177024751 -2.53269627493e-16 0)
(0.0313177024751 -9.71445146547e-17 0)
(0.0313177024751 -9.71445146547e-17 0)
(0.0313177024751 -1.04083408559e-17 0)
(0.0313177024751 4.16333634234e-17 0)
(0.0313177024751 -1.14491749414e-16 0)
(0.0313177024751 6.93889390391e-18 0)
(0.0313177024751 2.08166817117e-17 0)
(0.0313177024751 -4.51028103754e-17 0)
(0.0313177024751 -1.4224732503e-16 0)
(0.0313177024751 -1.49186218934e-16 0)
(0.0313177024751 -1.11022302463e-16 0)
(0.0313177024751 -9.71445146547e-17 0)
(0.0435958925376 -1.31838984174e-16 0)
(0.0435958925376 8.32667268469e-17 0)
(0.0435958925376 -1.73472347598e-16 0)
(0.0435958925376 -4.16333634234e-17 0)
(0.0435958925376 -1.17961196366e-16 0)
(0.0435958925376 -9.02056207508e-17 0)
(0.0435958925376 -1.80411241502e-16 0)
(0.0435958925376 -2.28983498829e-16 0)
(0.0435958925376 -2.77555756156e-16 0)
(0.0435958925376 -1.11022302463e-16 0)
(0.0435958925376 -2.77555756156e-17 0)
(0.0435958925376 -4.85722573274e-17 0)
(0.0435958925376 -4.85722573274e-17 0)
(0.0435958925376 -3.46944695195e-17 0)
(0.0435958925376 -9.71445146547e-17 0)
(0.0435958925376 -2.01227923213e-16 0)
(0.0435958925376 -1.2490009027e-16 0)
(0.0435958925376 -2.35922392733e-16 0)
(0.0435958925376 -2.22044604925e-16 0)
(0.0435958925376 -2.08166817117e-16 0)
(0.0581052935113 -1.38777878078e-16 0)
(0.0581052935113 6.93889390391e-18 0)
(0.0581052935113 -4.16333634234e-17 0)
(0.0581052935113 -1.11022302463e-16 0)
(0.0581052935113 -6.93889390391e-17 0)
(0.0581052935113 6.93889390391e-18 0)
(0.0581052935113 -6.93889390391e-17 0)
(0.0581052935113 4.16333634234e-17 0)
(0.0581052935113 -9.02056207508e-17 0)
(0.0581052935113 -1.04083408559e-16 0)
(0.0581052935113 2.08166817117e-17 0)
(0.0581052935113 -5.55111512313e-17 0)
(0.0581052935113 7.6327832943e-17 0)
(0.0581052935113 -2.08166817117e-17 0)
(0.0581052935113 -5.55111512313e-17 0)
(0.0581052935113 -1.17961196366e-16 0)
(0.0581052935113 -1.87350135406e-16 0)
(0.0581052935113 -2.01227923213e-16 0)
(0.0581052935113 -3.1918911958e-16 0)
(0.0581052935113 -2.56739074445e-16 0)
(0.0744087171413 -1.38777878078e-16 0)
(0.0744087171413 -3.46944695195e-17 0)
(0.0744087171413 -5.55111512313e-17 0)
(0.0744087171413 -1.2490009027e-16 0)
(0.0744087171413 -6.24500451352e-17 0)
(0.0744087171413 4.85722573274e-17 0)
(0.0744087171413 1.31838984174e-16 0)
(0.0744087171413 3.46944695195e-17 0)
(0.0744087171413 6.93889390391e-17 0)
(0.0744087171413 -1.38777878078e-17 0)
(0.0744087171413 4.85722573274e-17 0)
(0.0744087171413 4.16333634234e-17 0)
(0.0744087171413 0 0)
(0.0744087171413 -6.93889390391e-17 0)
(0.0744087171413 -1.94289029309e-16 0)
(0.0744087171413 -4.85722573274e-17 0)
(0.0744087171413 -2.01227923213e-16 0)
(0.0744087171413 -1.73472347598e-16 0)
(0.0744087171413 -2.15105711021e-16 0)
(0.0744087171413 -3.1918911958e-16 0)
(0.0919285927276 -9.71445146547e-17 0)
(0.0919285927276 -6.93889390391e-17 0)
(0.0919285927276 -4.85722573274e-17 0)
(0.0919285927276 -1.5959455979e-16 0)
(0.0919285927276 -6.24500451352e-17 0)
(0.0919285927276 -2.08166817117e-17 0)
(0.0919285927276 6.24500451352e-17 0)
(0.0919285927276 1.38777878078e-17 0)
(0.0919285927276 -4.16333634234e-17 0)
(0.0919285927276 1.38777878078e-17 0)
(0.0919285927276 5.55111512313e-17 0)
(0.0919285927276 6.93889390391e-17 0)
(0.0919285927276 5.55111512313e-17 0)
(0.0919285927276 -5.55111512313e-17 0)
(0.0919285927276 -1.11022302463e-16 0)
(0.0919285927276 -1.11022302463e-16 0)
(0.0919285927276 -8.32667268469e-17 0)
(0.0919285927276 -1.38777878078e-16 0)
(0.0919285927276 -1.38777878078e-16 0)
(0.0919285927276 -2.28983498829e-16 0)
)
;

boundaryField
{
    top
    {
        type            fixedValue;
        value           uniform (0.1 0 0);
    }
    bottom
    {
        type            fixedValue;
        value           uniform (0 0 0);
    }
    left
    {
        type            cyclic;
    }
    right
    {
        type            cyclic;
    }
    frontAndBack
    {
        type            empty;
    }
}


// ************************************************************************* //
