/*--------------------------------*- C++ -*----------------------------------*\
| =========                 |                                                 |
| \\      /  F ield         | OpenFOAM: The Open Source CFD Toolbox           |
|  \\    /   O peration     | Version:  2.4.0                                 |
|   \\  /    A nd           | Web:      www.OpenFOAM.org                      |
|    \\/     M anipulation  |                                                 |
\*---------------------------------------------------------------------------*/
FoamFile
{
    version     2.0;
    format      ascii;
    class       volScalarField;
    location    "400";
    object      rho;
}
// * * * * * * * * * * * * * * * * * * * * * * * * * * * * * * * * * * * * * //

dimensions      [1 -3 0 0 0 0 0];

internalField   nonuniform List<scalar> 
2500
(
1.00001766888
1.00001822002
1.0000182405
1.00001815075
1.00001794521
1.00001767296
1.00001735619
1.00001701222
1.00001665063
1.00001627724
1.00001589557
1.00001550786
1.00001511564
1.00001471998
1.00001432168
1.00001392133
1.00001351939
1.00001311622
1.00001271208
1.00001230719
1.00001190172
1.00001149581
1.00001108956
1.00001068306
1.0000102764
1.00000986963
1.00000946281
1.00000905601
1.00000864929
1.00000824274
1.00000783645
1.00000743052
1.00000702511
1.00000662042
1.00000621667
1.00000581419
1.0000054134
1.00000501484
1.00000461926
1.00000422769
1.00000384157
1.00000346308
1.00000309566
1.00000274517
1.0000024216
1.00000214369
1.00000193883
1.00000186675
1.00000195519
1.00000262592
1.0000181339
1.00001836915
1.00001822574
1.00001804526
1.00001780122
1.00001752204
1.00001721322
1.00001688289
1.0000165361
1.00001617684
1.000015808
1.00001543171
1.00001504957
1.00001466282
1.00001427239
1.00001387902
1.00001348329
1.00001308567
1.00001268654
1.0000122862
1.00001188491
1.00001148287
1.00001108028
1.00001067728
1.00001027403
1.00000987065
1.00000946728
1.00000906405
1.0000086611
1.00000825858
1.00000785668
1.00000745561
1.0000070556
1.00000665699
1.00000626013
1.00000586551
1.00000547374
1.00000508557
1.00000470201
1.00000432438
1.00000395442
1.00000359451
1.00000324789
1.00000291914
1.00000261434
1.00000234309
1.0000021141
1.00000195818
1.00000186275
1.00000214263
1.00001855793
1.00001854603
1.00001832245
1.00001809227
1.00001782039
1.00001752496
1.00001720742
1.00001687272
1.00001652408
1.00001616439
1.00001579587
1.00001542031
1.0000150391
1.00001465335
1.00001426393
1.00001387155
1.00001347677
1.00001308006
1.00001268177
1.00001228224
1.0000118817
1.00001148039
1.0000110785
1.00001067618
1.0000102736
1.00000987089
1.0000094682
1.00000906567
1.00000866344
1.0000082617
1.00000786061
1.00000746041
1.00000706136
1.00000666376
1.00000626801
1.00000587458
1.00000548405
1.00000509718
1.00000471491
1.00000433844
1.00000396932
1.00000360956
1.00000326173
1.00000292919
1.00000261593
1.00000232786
1.00000206842
1.0000018562
1.00000166531
1.00000167497
1.00001887594
1.00001870712
1.00001842416
1.00001814963
1.0000178504
1.00001753678
1.00001720797
1.00001686656
1.00001651425
1.00001615278
1.00001578369
1.00001540828
1.00001502764
1.00001464271
1.00001425424
1.00001386286
1.00001346909
1.00001307336
1.00001267604
1.00001227744
1.00001187781
1.00001147737
1.00001107632
1.00001067484
1.00001027308
1.0000098712
1.00000946935
1.00000906767
1.00000866634
1.00000826552
1.00000786542
1.00000746625
1.00000706829
1.00000667184
1.00000627729
1.0000058851
1.00000549581
1.0000051101
1.00000472882
1.00000435299
1.00000398384
1.0000036229
1.00000327195
1.00000293312
1.00000260857
1.00000230141
1.00000201199
1.00000175002
1.00000148859
1.00000132692
1.00001912565
1.00001885526
1.00001853138
1.00001822151
1.00001789887
1.00001756801
1.00001722707
1.00001687719
1.00001651909
1.00001615377
1.00001578219
1.00001540525
1.00001502376
1.00001463843
1.00001424986
1.0000138586
1.00001346509
1.00001306972
1.00001267282
1.00001227467
1.00001187551
1.00001147556
1.00001107501
1.00001067403
1.00001027278
1.00000987142
1.00000947009
1.00000906894
1.00000866814
1.00000826786
1.00000786829
1.00000746965
1.00000707219
1.00000667621
1.00000628205
1.00000589013
1.00000550091
1.000005115
1.00000473305
1.00000435587
1.00000398439
1.00000361965
1.0000032628
1.00000291506
1.00000257747
1.0000022514
1.00000193572
1.0000016341
1.00000132401
1.00000105376
1.00001932236
1.00001898511
1.00001863244
1.00001829443
1.00001795178
1.00001760533
1.0000172528
1.00001689429
1.0000165299
1.00001616006
1.00001578529
1.00001540615
1.00001502319
1.00001463691
1.00001424779
1.00001385625
1.00001346266
1.00001306736
1.00001267063
1.00001227272
1.00001187385
1.00001147423
1.00001107404
1.00001067343
1.00001027257
1.00000987159
1.00000947066
1.0000090699
1.00000866949
1.00000826958
1.00000787035
1.00000747202
1.00000707482
1.000006679
1.00000628487
1.00000589278
1.00000550313
1.00000511639
1.00000473308
1.00000435378
1.00000397913
1.00000360978
1.00000324637
1.00000288948
1.00000253937
1.00000219623
1.00000185824
1.00000152528
1.00000118094
1.00000084051
1.00001948124
1.0000190988
1.00001872604
1.00001836627
1.00001800707
1.00001764698
1.0000172838
1.00001691696
1.00001654616
1.00001617144
1.000015793
1.00001541113
1.00001502617
1.00001463846
1.00001424834
1.00001385612
1.0000134621
1.00001306655
1.00001266971
1.0000122718
1.00001187301
1.00001147353
1.0000110735
1.0000106731
1.00001027245
1.00000987171
1.00000947099
1.00000907046
1.00000867024
1.0000082705
1.00000787139
1.00000747311
1.00000707586
1.00000667986
1.00000628537
1.00000589267
1.00000550209
1.00000511397
1.00000472869
1.00000434664
1.00000396822
1.00000359378
1.00000322358
1.00000285777
1.00000249611
1.00000213806
1.00000178165
1.00000142462
1.00000105643
1.00000066983
1.00001961201
1.00001919804
1.00001881106
1.00001843454
1.00001806181
1.00001769006
1.00001731736
1.00001694279
1.0000165658
1.00001618618
1.0000158039
1.00001541906
1.0000150318
1.00001464235
1.00001425093
1.00001385775
1.00001346304
1.00001306701
1.00001266985
1.00001227174
1.00001187285
1.00001147333
1.00001107333
1.00001067298
1.00001027241
1.00000987175
1.00000947112
1.00000907066
1.00000867048
1.00000827073
1.00000787156
1.00000747312
1.00000707558
1.00000667914
1.00000628401
1.00000589039
1.00000549853
1.00000510868
1.00000472109
1.00000433599
1.00000395358
1.000003574
1.00000319724
1.00000282314
1.00000245119
1.00000208045
1.00000170909
1.00000133373
1.00000094874
1.00000053093
1.0000197216
1.00001928491
1.00001888774
1.00001849835
1.00001811468
1.00001773308
1.00001735203
1.00001697045
1.00001658766
1.0000162033
1.00001581719
1.00001542926
1.00001503956
1.00001464818
1.00001425524
1.0000138609
1.0000134653
1.00001306859
1.00001267092
1.00001227245
1.0000118733
1.0000114736
1.00001107348
1.00001067305
1.00001027243
1.00000987173
1.00000947105
1.00000907052
1.00000867024
1.00000827033
1.00000787092
1.00000747214
1.00000707413
1.00000667704
1.00000628103
1.00000588626
1.0000054929
1.00000510109
1.00000471099
1.00000432271
1.0000039363
1.00000355173
1.00000316884
1.00000278725
1.00000240633
1.00000202495
1.00000164161
1.00000125233
1.00000085543
1.00000041597
1.00001981477
1.00001936117
1.00001895658
1.00001855725
1.00001816475
1.0000177749
1.00001738664
1.0000169988
1.00001661071
1.00001622188
1.00001583206
1.00001544107
1.00001504887
1.00001465547
1.0000142609
1.00001386525
1.00001346861
1.00001307108
1.00001267278
1.0000122738
1.00001187426
1.00001147426
1.00001107391
1.00001067328
1.0000102725
1.00000987164
1.0000094708
1.00000907008
1.00000866957
1.00000826937
1.00000786959
1.00000747033
1.0000070717
1.00000667381
1.00000627677
1.00000588069
1.00000548567
1.0000050918
1.00000469914
1.00000430769
1.00000391742
1.00000352816
1.00000313966
1.00000275145
1.00000236283
1.00000197263
1.00000157974
1.00000117987
1.00000077442
1.0000003195
1.00001989488
1.00001942834
1.00001901826
1.00001861118
1.00001821156
1.00001781485
1.00001742039
1.00001702704
1.00001663415
1.0000162412
1.00001584787
1.00001545393
1.00001505926
1.00001466381
1.00001426755
1.00001387052
1.00001347275
1.0000130743
1.00001267526
1.00001227568
1.00001187565
1.00001147525
1.00001107456
1.00001067365
1.0000102726
1.00000987148
1.00000947039
1.00000906938
1.00000866855
1.00000826796
1.00000786769
1.00000746784
1.00000706847
1.00000666966
1.00000627149
1.00000587402
1.00000547729
1.00000508132
1.00000468612
1.00000429162
1.00000389771
1.00000350415
1.00000311063
1.00000271662
1.00000232147
1.00000192401
1.00000152352
1.00000111556
1.00000070388
1.00000023766
1.00001996436
1.00001948764
1.00001907344
1.00001866026
1.00001825487
1.00001785245
1.00001745272
1.00001705456
1.00001665739
1.00001626068
1.00001586409
1.00001546736
1.00001507031
1.00001467284
1.00001427489
1.00001387644
1.0000134775
1.00001307807
1.00001267822
1.00001227797
1.00001187737
1.0000114765
1.00001107539
1.00001067411
1.00001027272
1.00000987128
1.00000946984
1.00000906847
1.00000866723
1.00000826617
1.00000786534
1.00000746482
1.00000706464
1.00000666485
1.00000626549
1.00000586658
1.00000546813
1.00000507012
1.00000467247
1.0000042751
1.00000387782
1.00000348037
1.0000030824
1.00000268339
1.00000228273
1.00000187933
1.0000014728
1.00000105861
1.00000064233
1.00000016762
1.00002002495
1.00001954007
1.00001912273
1.00001870469
1.00001829463
1.00001788746
1.00001748324
1.00001708091
1.00001667995
1.00001627987
1.00001588029
1.00001548095
1.00001508165
1.00001468224
1.00001428264
1.00001388279
1.00001348265
1.00001308222
1.00001268151
1.00001228054
1.00001187933
1.00001147792
1.00001107635
1.00001067465
1.00001027286
1.00000987103
1.00000946919
1.0000090674
1.00000866569
1.00000826409
1.00000786266
1.00000746141
1.00000706038
1.00000665958
1.00000625902
1.00000585869
1.00000545856
1.00000505857
1.00000465863
1.00000425858
1.00000385824
1.00000345733
1.00000305547
1.00000265217
1.00000224689
1.00000183863
1.00000142728
1.00000100825
1.00000058855
1.00000010733
1.00002007797
1.00001958642
1.00001916665
1.00001874471
1.00001833084
1.00001791973
1.0000175117
1.00001710578
1.0000167015
1.00001629839
1.00001589611
1.00001549438
1.00001509298
1.00001469174
1.00001429055
1.00001388933
1.00001348802
1.00001308659
1.00001268502
1.0000122833
1.00001188145
1.00001147947
1.00001107739
1.00001067523
1.000010273
1.00000987074
1.00000946846
1.00000906621
1.00000866399
1.00000826183
1.00000785975
1.00000745776
1.00000705586
1.00000665405
1.0000062523
1.00000585059
1.00000544886
1.00000504701
1.00000464494
1.00000424246
1.00000383938
1.00000343539
1.00000303016
1.00000262321
1.00000221408
1.00000180184
1.00000138664
1.00000096382
1.00000054153
1.00000005523
1.00002012441
1.00001962734
1.00001920567
1.00001878058
1.00001836358
1.00001794919
1.00001753794
1.00001712893
1.00001672175
1.00001631598
1.00001591128
1.00001550737
1.00001510403
1.00001470109
1.00001429841
1.00001389589
1.00001349345
1.00001309103
1.00001268861
1.00001228615
1.00001188364
1.00001148109
1.00001107848
1.00001067583
1.00001027314
1.00000987042
1.00000946768
1.00000906494
1.0000086622
1.00000825946
1.00000785672
1.00000745398
1.00000705123
1.00000664843
1.00000624554
1.00000584252
1.00000543928
1.00000503572
1.0000046317
1.00000422703
1.00000382151
1.00000341484
1.0000030067
1.00000259666
1.00000218432
1.00000176883
1.00000135055
1.00000092475
1.00000050048
1.00000001014
1.00002016501
1.00001966334
1.00001924018
1.00001881252
1.00001839295
1.00001797583
1.00001756187
1.0000171502
1.00001674052
1.00001633241
1.00001592556
1.0000155197
1.00001511461
1.0000147101
1.00001430604
1.00001390229
1.00001349878
1.00001309543
1.00001269218
1.00001228899
1.00001188585
1.00001148271
1.00001107958
1.00001067643
1.00001027327
1.00000987009
1.00000946688
1.00000906365
1.00000866037
1.00000825705
1.00000785367
1.0000074502
1.00000704662
1.00000664288
1.00000623892
1.00000583468
1.00000543005
1.00000502492
1.00000461914
1.00000421253
1.00000380486
1.00000339587
1.00000298524
1.0000025726
1.00000215759
1.00000173945
1.00000131868
1.00000089052
1.00000046473
0.999999971167
1.00002020037
1.00001969485
1.00001927049
1.00001884072
1.00001841905
1.00001799966
1.00001758341
1.0000171695
1.00001675766
1.00001634751
1.00001593877
1.00001553118
1.00001512452
1.0000147186
1.00001431327
1.00001390841
1.0000135039
1.00001309967
1.00001269564
1.00001229176
1.00001188799
1.0000114843
1.00001108064
1.00001067702
1.00001027339
1.00000986975
1.00000946608
1.00000906236
1.00000865857
1.00000825469
1.00000785069
1.00000744653
1.00000704216
1.00000663754
1.00000623259
1.00000582722
1.00000542134
1.0000050148
1.00000460746
1.00000419914
1.0000037896
1.00000337861
1.00000296588
1.00000255105
1.00000213384
1.00000171353
1.00000129077
1.00000086072
1.00000043376
0.999999937584
1.00002023093
1.00001972218
1.00001929687
1.00001886539
1.00001844198
1.0000180207
1.00001760254
1.00001718674
1.00001677306
1.00001636116
1.00001595078
1.00001554168
1.00001513363
1.00001472645
1.00001431999
1.00001391411
1.00001350869
1.00001310365
1.0000126989
1.00001229438
1.00001189003
1.0000114858
1.00001108166
1.00001067757
1.0000102735
1.00000986942
1.00000946531
1.00000906113
1.00000865685
1.00000825244
1.00000784785
1.00000744304
1.00000703796
1.00000663253
1.00000622668
1.0000058203
1.00000541329
1.00000500551
1.0000045968
1.00000418699
1.00000377586
1.00000336317
1.00000294865
1.000002532
1.00000211298
1.00000169092
1.00000126655
1.000000835
1.00000040712
0.999999908835
1.00002025705
1.00001974561
1.00001931954
1.00001888665
1.00001846183
1.000018039
1.00001761926
1.00001720187
1.00001678664
1.00001637326
1.00001596148
1.00001555107
1.00001514181
1.00001473353
1.00001432607
1.00001391929
1.00001351307
1.0000131073
1.0000127019
1.00001229679
1.0000118919
1.00001148719
1.0000110826
1.00001067808
1.0000102736
1.00000986911
1.00000946458
1.00000905997
1.00000865524
1.00000825034
1.00000784522
1.00000743983
1.0000070341
1.00000662795
1.00000622129
1.00000581402
1.00000540603
1.00000499717
1.00000458728
1.0000041762
1.00000376371
1.00000334959
1.0000029336
1.00000251545
1.00000209494
1.00000167146
1.0000012458
1.00000081307
1.00000038447
0.999999884477
1.00002027901
1.00001976534
1.00001933867
1.00001890466
1.00001847869
1.0000180546
1.00001763357
1.00001721487
1.00001679836
1.00001638373
1.00001597078
1.00001555926
1.00001514898
1.00001473976
1.00001433144
1.00001392388
1.00001351695
1.00001311054
1.00001270457
1.00001229894
1.00001189358
1.00001148844
1.00001108344
1.00001067853
1.00001027368
1.00000986883
1.00000946393
1.00000905893
1.00000865379
1.00000824846
1.00000784287
1.00000743696
1.00000703066
1.00000662387
1.00000621652
1.00000580849
1.00000539965
1.00000498987
1.00000457899
1.00000416684
1.00000375322
1.00000333792
1.00000292071
1.00000250135
1.00000207965
1.00000165502
1.00000122835
1.00000079467
1.00000036553
0.999999864158
1.00002029701
1.00001978156
1.00001935442
1.00001891951
1.00001849264
1.00001806754
1.00001764547
1.00001722572
1.00001680816
1.00001639253
1.00001597861
1.00001556618
1.00001515505
1.00001474505
1.00001433601
1.0000139278
1.00001352027
1.00001311333
1.00001270687
1.00001230079
1.00001189503
1.00001148951
1.00001108416
1.00001067893
1.00001027375
1.00000986857
1.00000946335
1.00000905802
1.00000865254
1.00000824683
1.00000784083
1.00000743448
1.0000070277
1.00000662038
1.00000621244
1.00000580377
1.00000539423
1.00000498369
1.00000457199
1.00000415896
1.00000374443
1.00000332817
1.00000291
1.00000248966
1.00000206702
1.0000016415
1.00000121403
1.00000077962
1.00000035006
0.999999847603
1.00002031124
1.00001979439
1.00001936689
1.00001893129
1.00001850372
1.00001807785
1.00001765497
1.0000172344
1.00001681603
1.00001639961
1.00001598493
1.00001557178
1.00001515998
1.00001474935
1.00001433974
1.00001393099
1.00001352299
1.00001311561
1.00001270875
1.00001230232
1.00001189622
1.00001149039
1.00001108475
1.00001067924
1.0000102738
1.00000986836
1.00000946287
1.00000905727
1.0000086515
1.00000824548
1.00000783916
1.00000743245
1.00000702527
1.00000661752
1.00000620912
1.00000579992
1.00000538983
1.00000497868
1.00000456634
1.00000415263
1.00000373737
1.00000332038
1.00000290145
1.00000248036
1.000002057
1.0000016308
1.00000120272
1.00000076776
1.00000033788
0.999999834596
1.0000203218
1.00001980393
1.00001937617
1.00001894007
1.00001851199
1.00001808555
1.00001766209
1.00001724091
1.00001682195
1.00001640494
1.00001598969
1.00001557601
1.00001516371
1.00001475261
1.00001434257
1.00001393343
1.00001352506
1.00001311735
1.00001271019
1.00001230348
1.00001189713
1.00001149107
1.00001108521
1.00001067949
1.00001027384
1.0000098682
1.00000946251
1.0000090567
1.0000086507
1.00000824445
1.00000783787
1.00000743089
1.00000702341
1.00000661535
1.00000620658
1.00000579701
1.00000538649
1.0000049749
1.00000456207
1.00000414785
1.00000373206
1.00000331453
1.00000289505
1.00000247342
1.00000204953
1.00000162283
1.00000119432
1.00000075896
1.00000032886
0.999999824975
1.0000203288
1.00001981025
1.00001938233
1.00001894589
1.00001851749
1.00001809068
1.00001766683
1.00001724526
1.0000168259
1.0000164085
1.00001599288
1.00001557885
1.00001516621
1.0000147548
1.00001434447
1.00001393506
1.00001352646
1.00001311853
1.00001271116
1.00001230427
1.00001189775
1.00001149152
1.00001108552
1.00001067965
1.00001027387
1.00000986809
1.00000946226
1.0000090563
1.00000865016
1.00000824375
1.00000783701
1.00000742984
1.00000702216
1.00000661388
1.00000620488
1.00000579504
1.00000538425
1.00000497235
1.00000455921
1.00000414466
1.00000372852
1.00000331063
1.00000289079
1.0000024688
1.00000204457
1.00000161755
1.00000118876
1.00000075314
1.0000003229
0.999999818623
1.00002033229
1.0000198134
1.0000193854
1.0000189488
1.00001852023
1.00001809324
1.00001766919
1.00001724743
1.00001682788
1.00001641029
1.00001599448
1.00001558027
1.00001516746
1.0000147559
1.00001434543
1.00001393589
1.00001352716
1.00001311912
1.00001271165
1.00001230466
1.00001189806
1.00001149175
1.00001108567
1.00001067974
1.00001027388
1.00000986803
1.00000946213
1.00000905611
1.00000864989
1.0000082434
1.00000783657
1.00000742931
1.00000702153
1.00000661314
1.00000620402
1.00000579405
1.00000538312
1.00000497108
1.00000455778
1.00000414306
1.00000372675
1.00000330867
1.00000288866
1.0000024665
1.0000020421
1.00000161492
1.00000118599
1.00000075025
1.00000031994
0.999999815466
1.00002033229
1.0000198134
1.0000193854
1.0000189488
1.00001852023
1.00001809324
1.00001766919
1.00001724743
1.00001682788
1.00001641029
1.00001599448
1.00001558027
1.00001516746
1.0000147559
1.00001434543
1.00001393589
1.00001352716
1.00001311912
1.00001271165
1.00001230466
1.00001189806
1.00001149175
1.00001108567
1.00001067974
1.00001027388
1.00000986803
1.00000946213
1.00000905611
1.00000864989
1.0000082434
1.00000783657
1.00000742931
1.00000702153
1.00000661314
1.00000620402
1.00000579405
1.00000538312
1.00000497108
1.00000455778
1.00000414306
1.00000372675
1.00000330867
1.00000288866
1.0000024665
1.0000020421
1.00000161492
1.00000118599
1.00000075025
1.00000031994
0.999999815466
1.0000203288
1.00001981025
1.00001938233
1.00001894589
1.00001851749
1.00001809068
1.00001766683
1.00001724526
1.0000168259
1.0000164085
1.00001599288
1.00001557885
1.00001516621
1.0000147548
1.00001434447
1.00001393506
1.00001352646
1.00001311853
1.00001271116
1.00001230427
1.00001189775
1.00001149152
1.00001108552
1.00001067965
1.00001027387
1.00000986809
1.00000946226
1.0000090563
1.00000865016
1.00000824375
1.00000783701
1.00000742984
1.00000702216
1.00000661388
1.00000620488
1.00000579504
1.00000538425
1.00000497235
1.00000455921
1.00000414466
1.00000372852
1.00000331063
1.00000289079
1.0000024688
1.00000204457
1.00000161755
1.00000118876
1.00000075314
1.0000003229
0.999999818623
1.0000203218
1.00001980393
1.00001937617
1.00001894007
1.00001851199
1.00001808555
1.00001766209
1.00001724091
1.00001682195
1.00001640494
1.00001598969
1.00001557601
1.00001516371
1.00001475261
1.00001434257
1.00001393343
1.00001352506
1.00001311735
1.00001271019
1.00001230348
1.00001189713
1.00001149107
1.00001108521
1.00001067949
1.00001027384
1.0000098682
1.00000946251
1.0000090567
1.0000086507
1.00000824445
1.00000783787
1.00000743089
1.00000702341
1.00000661535
1.00000620658
1.00000579701
1.00000538649
1.0000049749
1.00000456207
1.00000414785
1.00000373206
1.00000331453
1.00000289505
1.00000247342
1.00000204953
1.00000162283
1.00000119432
1.00000075896
1.00000032886
0.999999824975
1.00002031124
1.00001979439
1.00001936689
1.00001893129
1.00001850372
1.00001807785
1.00001765497
1.0000172344
1.00001681603
1.00001639961
1.00001598493
1.00001557178
1.00001515998
1.00001474935
1.00001433974
1.00001393099
1.00001352299
1.00001311561
1.00001270875
1.00001230232
1.00001189622
1.00001149039
1.00001108475
1.00001067924
1.0000102738
1.00000986836
1.00000946287
1.00000905727
1.0000086515
1.00000824548
1.00000783916
1.00000743245
1.00000702527
1.00000661752
1.00000620912
1.00000579992
1.00000538983
1.00000497868
1.00000456634
1.00000415263
1.00000373737
1.00000332038
1.00000290145
1.00000248036
1.000002057
1.0000016308
1.00000120272
1.00000076776
1.00000033788
0.999999834596
1.00002029701
1.00001978156
1.00001935442
1.00001891951
1.00001849264
1.00001806754
1.00001764547
1.00001722572
1.00001680816
1.00001639253
1.00001597861
1.00001556618
1.00001515505
1.00001474505
1.00001433601
1.0000139278
1.00001352027
1.00001311333
1.00001270687
1.00001230079
1.00001189503
1.00001148951
1.00001108416
1.00001067893
1.00001027375
1.00000986857
1.00000946335
1.00000905802
1.00000865254
1.00000824683
1.00000784083
1.00000743448
1.0000070277
1.00000662038
1.00000621244
1.00000580377
1.00000539423
1.00000498369
1.00000457199
1.00000415896
1.00000374443
1.00000332817
1.00000291
1.00000248966
1.00000206702
1.0000016415
1.00000121403
1.00000077962
1.00000035006
0.999999847603
1.00002027901
1.00001976534
1.00001933867
1.00001890466
1.00001847869
1.0000180546
1.00001763357
1.00001721487
1.00001679836
1.00001638373
1.00001597078
1.00001555926
1.00001514898
1.00001473976
1.00001433144
1.00001392388
1.00001351695
1.00001311054
1.00001270457
1.00001229894
1.00001189358
1.00001148844
1.00001108344
1.00001067853
1.00001027368
1.00000986883
1.00000946393
1.00000905893
1.00000865379
1.00000824846
1.00000784287
1.00000743696
1.00000703066
1.00000662387
1.00000621652
1.00000580849
1.00000539965
1.00000498987
1.00000457899
1.00000416684
1.00000375322
1.00000333792
1.00000292071
1.00000250135
1.00000207965
1.00000165502
1.00000122835
1.00000079467
1.00000036553
0.999999864158
1.00002025705
1.00001974561
1.00001931954
1.00001888665
1.00001846183
1.000018039
1.00001761926
1.00001720187
1.00001678664
1.00001637326
1.00001596148
1.00001555107
1.00001514181
1.00001473353
1.00001432607
1.00001391929
1.00001351307
1.0000131073
1.0000127019
1.00001229679
1.0000118919
1.00001148719
1.0000110826
1.00001067808
1.0000102736
1.00000986911
1.00000946458
1.00000905997
1.00000865524
1.00000825034
1.00000784522
1.00000743983
1.0000070341
1.00000662795
1.00000622129
1.00000581402
1.00000540603
1.00000499717
1.00000458728
1.0000041762
1.00000376371
1.00000334959
1.0000029336
1.00000251545
1.00000209494
1.00000167146
1.0000012458
1.00000081307
1.00000038447
0.999999884477
1.00002023093
1.00001972218
1.00001929687
1.00001886539
1.00001844198
1.0000180207
1.00001760254
1.00001718674
1.00001677306
1.00001636116
1.00001595078
1.00001554168
1.00001513363
1.00001472645
1.00001431999
1.00001391411
1.00001350869
1.00001310365
1.0000126989
1.00001229438
1.00001189003
1.0000114858
1.00001108166
1.00001067757
1.0000102735
1.00000986942
1.00000946531
1.00000906113
1.00000865685
1.00000825244
1.00000784785
1.00000744304
1.00000703796
1.00000663253
1.00000622668
1.0000058203
1.00000541329
1.00000500551
1.0000045968
1.00000418699
1.00000377586
1.00000336317
1.00000294865
1.000002532
1.00000211298
1.00000169092
1.00000126655
1.000000835
1.00000040712
0.999999908835
1.00002020037
1.00001969485
1.00001927049
1.00001884072
1.00001841905
1.00001799966
1.00001758341
1.0000171695
1.00001675766
1.00001634751
1.00001593877
1.00001553118
1.00001512452
1.0000147186
1.00001431327
1.00001390841
1.0000135039
1.00001309967
1.00001269564
1.00001229176
1.00001188799
1.0000114843
1.00001108064
1.00001067702
1.00001027339
1.00000986975
1.00000946608
1.00000906236
1.00000865857
1.00000825469
1.00000785069
1.00000744653
1.00000704216
1.00000663754
1.00000623259
1.00000582722
1.00000542134
1.0000050148
1.00000460746
1.00000419914
1.0000037896
1.00000337861
1.00000296588
1.00000255105
1.00000213384
1.00000171353
1.00000129077
1.00000086072
1.00000043376
0.999999937584
1.00002016501
1.00001966334
1.00001924018
1.00001881252
1.00001839295
1.00001797583
1.00001756187
1.0000171502
1.00001674052
1.00001633241
1.00001592556
1.0000155197
1.00001511461
1.0000147101
1.00001430604
1.00001390229
1.00001349878
1.00001309543
1.00001269218
1.00001228899
1.00001188585
1.00001148271
1.00001107958
1.00001067643
1.00001027327
1.00000987009
1.00000946688
1.00000906365
1.00000866037
1.00000825705
1.00000785367
1.0000074502
1.00000704662
1.00000664288
1.00000623892
1.00000583468
1.00000543005
1.00000502492
1.00000461914
1.00000421253
1.00000380486
1.00000339587
1.00000298524
1.0000025726
1.00000215759
1.00000173945
1.00000131868
1.00000089052
1.00000046473
0.999999971167
1.00002012441
1.00001962734
1.00001920567
1.00001878058
1.00001836358
1.00001794919
1.00001753794
1.00001712893
1.00001672175
1.00001631598
1.00001591128
1.00001550737
1.00001510403
1.00001470109
1.00001429841
1.00001389589
1.00001349345
1.00001309103
1.00001268861
1.00001228615
1.00001188364
1.00001148109
1.00001107848
1.00001067583
1.00001027314
1.00000987042
1.00000946768
1.00000906494
1.0000086622
1.00000825946
1.00000785672
1.00000745398
1.00000705123
1.00000664843
1.00000624554
1.00000584252
1.00000543928
1.00000503572
1.0000046317
1.00000422703
1.00000382151
1.00000341484
1.0000030067
1.00000259666
1.00000218432
1.00000176883
1.00000135055
1.00000092475
1.00000050048
1.00000001014
1.00002007797
1.00001958642
1.00001916665
1.00001874471
1.00001833084
1.00001791973
1.0000175117
1.00001710578
1.0000167015
1.00001629839
1.00001589611
1.00001549438
1.00001509298
1.00001469174
1.00001429055
1.00001388933
1.00001348802
1.00001308659
1.00001268502
1.0000122833
1.00001188145
1.00001147947
1.00001107739
1.00001067523
1.000010273
1.00000987074
1.00000946846
1.00000906621
1.00000866399
1.00000826183
1.00000785975
1.00000745776
1.00000705586
1.00000665405
1.0000062523
1.00000585059
1.00000544886
1.00000504701
1.00000464494
1.00000424246
1.00000383938
1.00000343539
1.00000303016
1.00000262321
1.00000221408
1.00000180184
1.00000138664
1.00000096382
1.00000054153
1.00000005523
1.00002002495
1.00001954007
1.00001912273
1.00001870469
1.00001829463
1.00001788746
1.00001748324
1.00001708091
1.00001667995
1.00001627987
1.00001588029
1.00001548095
1.00001508165
1.00001468224
1.00001428264
1.00001388279
1.00001348265
1.00001308222
1.00001268151
1.00001228054
1.00001187933
1.00001147792
1.00001107635
1.00001067465
1.00001027286
1.00000987103
1.00000946919
1.0000090674
1.00000866569
1.00000826409
1.00000786266
1.00000746141
1.00000706038
1.00000665958
1.00000625902
1.00000585869
1.00000545856
1.00000505857
1.00000465863
1.00000425858
1.00000385824
1.00000345733
1.00000305547
1.00000265217
1.00000224689
1.00000183863
1.00000142728
1.00000100825
1.00000058855
1.00000010733
1.00001996436
1.00001948764
1.00001907344
1.00001866026
1.00001825487
1.00001785245
1.00001745272
1.00001705456
1.00001665739
1.00001626068
1.00001586409
1.00001546736
1.00001507031
1.00001467284
1.00001427489
1.00001387644
1.0000134775
1.00001307807
1.00001267822
1.00001227797
1.00001187737
1.0000114765
1.00001107539
1.00001067411
1.00001027272
1.00000987128
1.00000946984
1.00000906847
1.00000866723
1.00000826617
1.00000786534
1.00000746482
1.00000706464
1.00000666485
1.00000626549
1.00000586658
1.00000546813
1.00000507012
1.00000467247
1.0000042751
1.00000387782
1.00000348037
1.0000030824
1.00000268339
1.00000228273
1.00000187933
1.0000014728
1.00000105861
1.00000064233
1.00000016762
1.00001989488
1.00001942834
1.00001901826
1.00001861118
1.00001821156
1.00001781485
1.00001742039
1.00001702704
1.00001663415
1.0000162412
1.00001584787
1.00001545393
1.00001505926
1.00001466381
1.00001426755
1.00001387052
1.00001347275
1.0000130743
1.00001267526
1.00001227568
1.00001187565
1.00001147525
1.00001107456
1.00001067365
1.0000102726
1.00000987148
1.00000947039
1.00000906938
1.00000866855
1.00000826796
1.00000786769
1.00000746784
1.00000706847
1.00000666966
1.00000627149
1.00000587402
1.00000547729
1.00000508132
1.00000468612
1.00000429162
1.00000389771
1.00000350415
1.00000311063
1.00000271662
1.00000232147
1.00000192401
1.00000152352
1.00000111556
1.00000070388
1.00000023766
1.00001981477
1.00001936117
1.00001895658
1.00001855725
1.00001816475
1.0000177749
1.00001738664
1.0000169988
1.00001661071
1.00001622188
1.00001583206
1.00001544107
1.00001504887
1.00001465547
1.0000142609
1.00001386525
1.00001346861
1.00001307108
1.00001267278
1.0000122738
1.00001187426
1.00001147426
1.00001107391
1.00001067328
1.0000102725
1.00000987164
1.0000094708
1.00000907008
1.00000866957
1.00000826937
1.00000786959
1.00000747033
1.0000070717
1.00000667381
1.00000627677
1.00000588069
1.00000548567
1.0000050918
1.00000469914
1.00000430769
1.00000391742
1.00000352816
1.00000313966
1.00000275145
1.00000236283
1.00000197263
1.00000157974
1.00000117987
1.00000077442
1.0000003195
1.0000197216
1.00001928491
1.00001888774
1.00001849835
1.00001811468
1.00001773308
1.00001735203
1.00001697045
1.00001658766
1.0000162033
1.00001581719
1.00001542926
1.00001503956
1.00001464818
1.00001425524
1.0000138609
1.0000134653
1.00001306859
1.00001267092
1.00001227245
1.0000118733
1.0000114736
1.00001107348
1.00001067305
1.00001027243
1.00000987173
1.00000947105
1.00000907052
1.00000867024
1.00000827033
1.00000787092
1.00000747214
1.00000707413
1.00000667704
1.00000628103
1.00000588626
1.0000054929
1.00000510109
1.00000471099
1.00000432271
1.0000039363
1.00000355173
1.00000316884
1.00000278725
1.00000240633
1.00000202495
1.00000164161