/*--------------------------------*- C++ -*----------------------------------*\
| =========                 |                                                 |
| \\      /  F ield         | OpenFOAM: The Open Source CFD Toolbox           |
|  \\    /   O peration     | Version:  2.4.0                                 |
|   \\  /    A nd           | Web:      www.OpenFOAM.org                      |
|    \\/     M anipulation  |                                                 |
\*---------------------------------------------------------------------------*/
FoamFile
{
    version     2.0;
    format      ascii;
    class       volScalarField;
    location    "400";
    object      rho;
}
// * * * * * * * * * * * * * * * * * * * * * * * * * * * * * * * * * * * * * //

dimensions      [1 -3 0 0 0 0 0];

internalField   nonuniform List<scalar> 
2500
(
0.80932945669
0.835331602013
0.851583439425
0.863025011397
0.87104093467
0.87741643357
0.882641069076
0.887133553466
0.891082998157
0.894630656604
0.897864405331
0.900849957049
0.903634878431
0.906255934205
0.908741639163
0.911114705202
0.913393377759
0.915592502953
0.917724243114
0.919798627418
0.921823957245
0.923807120558
0.925753834417
0.927668836246
0.929556035223
0.931418633307
0.933259222211
0.93507986118
0.93688213896
0.938667222346
0.940435892608
0.942188570216
0.943925326261
0.94564587755
0.947349555198
0.949035233574
0.950701177302
0.952344764726
0.9539619378
0.955546310684
0.957087564497
0.958569461859
0.959967754962
0.961251414506
0.962400424937
0.96344406577
0.964667384937
0.966645278278
0.971582800642
0.977523078223
0.822328278535
0.838373379962
0.850880645713
0.861238324004
0.86917665319
0.875787793401
0.881295742574
0.886050441566
0.890221094307
0.893952320022
0.897337757482
0.900449727599
0.903341022003
0.906052647518
0.908616376419
0.911057488051
0.913396252131
0.915649146455
0.917829668201
0.91994896197
0.922016280241
0.924039341013
0.926024603792
0.927977488332
0.9299025493
0.931803618186
0.93368392007
0.935546171379
0.937392663244
0.939225334373
0.941045836529
0.942855595843
0.944655872125
0.94644782046
0.948232554677
0.950011223401
0.951785084436
0.9535556205
0.955324616756
0.957094413939
0.958868012699
0.960650077055
0.962448075982
0.964277328923
0.966174495263
0.9682134645
0.970630948544
0.973712166158
0.978798464827
0.985017482442
0.842938581134
0.850367962716
0.857994806279
0.865457491085
0.87185579969
0.877572048718
0.882544611632
0.886964412662
0.890916086485
0.894499318567
0.897781189676
0.900818846551
0.903655587584
0.906326542519
0.908859622692
0.911277553693
0.913598853156
0.915838782864
0.918009978785
0.920122971843
0.92218657591
0.92420819932
0.926194089684
0.92814953225
0.930079011184
0.931986343277
0.933874790374
0.935747155981
0.937605870311
0.93945306765
0.941290659188
0.943120405087
0.944943987558
0.946763090869
0.948579483655
0.950395120487
0.952212224776
0.954033431835
0.955861798211
0.957701120698
0.959555696471
0.961432007716
0.963338735558
0.96529764935
0.967351870006
0.969623012588
0.972375953021
0.976221931541
0.982319031912
0.992344591306
0.864858187417
0.865006086781
0.867750600284
0.871837878541
0.876230997357
0.880659174497
0.884812270978
0.888687396158
0.892266037801
0.895585309407
0.898674925101
0.901569199324
0.904296850873
0.90688357238
0.909350913014
0.911717238878
0.913997991469
0.916206227581
0.918352972468
0.920447567983
0.922497943217
0.92451084835
0.92649204575
0.928446471455
0.930378370658
0.932291413527
0.93418879526
0.936073324381
0.937947502385
0.93981359792
0.941673717735
0.943529878191
0.945384077368
0.94723837647
0.949094980119
0.950956350981
0.952825295208
0.954705201365
0.956600101001
0.958515542122
0.96045855657
0.962442050449
0.964484378745
0.966632114411
0.968953540887
0.971650001135
0.974965799805
0.979731304549
0.986362417271
0.997995257268
0.886279314597
0.880702758753
0.879130676783
0.879955847028
0.882198514406
0.885111744612
0.888227099557
0.891364616924
0.894411206838
0.897336475338
0.900128294898
0.902793073348
0.905341030587
0.907785237148
0.910138453089
0.912412796828
0.914619172448
0.916767284164
0.918865637994
0.920921658527
0.922941800419
0.924931672997
0.926896154159
0.928839496997
0.930765425624
0.932677222215
0.93457780616
0.936469807499
0.938355636537
0.940237552507
0.9421177333
0.943998351749
0.945881658672
0.947770089157
0.949666378708
0.951573757131
0.953496126347
0.955438548013
0.95740749845
0.95941255291
0.961466455147
0.963592247019
0.965820163787
0.968220441788
0.970871127096
0.974015953763
0.977801911005
0.983110185592
0.989614265439
1.00096781487
0.905087347475
0.895565216731
0.890658265413
0.888754201695
0.889011584806
0.890418553277
0.892434748591
0.894748214063
0.897175002502
0.899624799329
0.90204703825
0.904420239169
0.906735463401
0.90899204927
0.911192898582
0.913342888394
0.915447531227
0.917512450495
0.919543022934
0.921544246049
0.923520676222
0.925476430688
0.927415213711
0.929340359878
0.931254883986
0.933161534932
0.935062851446
0.936961220002
0.938858935621
0.940758268277
0.942661536681
0.944571196783
0.946489944623
0.948420857409
0.95036755253
0.952334462306
0.954327084138
0.956352664811
0.958420507553
0.960544192842
0.962741186672
0.965041644536
0.96748113647
0.970139806161
0.973085076803
0.976560284697
0.980598166826
0.986013376883
0.992008061801
1.00206873315
0.920324509359
0.908614011873
0.901487667073
0.89754289542
0.896133971699
0.896178703601
0.897134315173
0.898611833336
0.900384047864
0.902315074341
0.904323521786
0.906363333451
0.908407929551
0.910443313266
0.912462480213
0.91446277595
0.916443956859
0.918407183054
0.920354340196
0.922287670013
0.924209541182
0.926122328713
0.928028350768
0.929929845793
0.931828973352
0.933727831633
0.935628486455
0.93753301011
0.939443529309
0.94136228424
0.943291699628
0.945234475872
0.94719369792
0.949172990762
0.951176691699
0.953210160444
0.955280037507
0.957395016408
0.959566068606
0.961808908335
0.964142934163
0.966600791389
0.969217394347
0.972071851591
0.975213455911
0.97886148855
0.982963224029
0.98821394947
0.993635991851
1.00223541573
0.931904483659
0.919447047531
0.911112239989
0.905808544162
0.903112521118
0.902013852343
0.90201607212
0.902704604882
0.903834266254
0.905240314199
0.906819810203
0.908507372341
0.910261702521
0.91205699003
0.913877093989
0.915712149429
0.91755624151
0.919406019313
0.921259765239
0.923116823471
0.924977224909
0.92684145457
0.928710304447
0.930584786113
0.932466082016
0.934355524478
0.936254594674
0.938164937972
0.940088393421
0.942027038515
0.943983248921
0.945959781492
0.947959875924
0.949987407273
0.952047050762
0.954144595878
0.956287180607
0.958484081069
0.960746815043
0.963091642428
0.965537921324
0.968117662732
0.970862147008
0.973843246604
0.977092393769
0.980794233629
0.984845654099
0.989811353296
0.994719535996
1.00205633544
0.940303895514
0.92810004624
0.919339992667
0.913259293373
0.909646501505
0.907645724252
0.906836170032
0.906818250129
0.907349230265
0.908251441874
0.909409548259
0.910744767686
0.912204616602
0.913753610859
0.915367736366
0.91703064341
0.918731145076
0.920461577415
0.922216696704
0.923992953477
0.925788001533
0.927600371047
0.929429247984
0.931274327823
0.933135719885
0.935013888286
0.936909619919
0.938824014228
0.940758491351
0.942714818921
0.94469515619
0.94670212368
0.948738891877
0.950809322778
0.952918119398
0.95507112772
0.957275536716
0.959540639434
0.961877818771
0.964302924529
0.966834214403
0.969501303893
0.972330716233
0.975384177122
0.978678218766
0.982361152166
0.986306394496
0.990962300148
0.995445812617
1.00180400043
0.946211485481
0.934836320501
0.926180069321
0.919767752579
0.915561202728
0.912889834502
0.91142087972
0.910796862345
0.910792359398
0.911230157317
0.911990618376
0.9129873357
0.914160267426
0.915466648244
0.916876105709
0.918366771927
0.9199227916
0.921532558357
0.923187521084
0.924881356745
0.92660939769
0.928368232503
0.930155426076
0.931969323314
0.933808911939
0.935673728558
0.937563797292
0.939479594598
0.941422035988
0.943392484216
0.945392776746
0.947425280273
0.949492964354
0.951599527682
0.953749528124
0.955948660155
0.958203914073
0.960524270231
0.962920575021
0.96540767592
0.968002107084
0.970730067001
0.973612939087
0.97670136668
0.980000150634
0.983624717728
0.987441652242
0.991807211561
0.995947502649
1.00157725253
0.95030897885
0.940007482008
0.931762760277
0.92532710285
0.920785060238
0.917645962719
0.915664192119
0.914538684922
0.91407076797
0.914093718983
0.914490194792
0.915171276981
0.916072759655
0.917146980299
0.918358797958
0.919681905901
0.921096499882
0.92258751174
0.924143400201
0.925755275821
0.927416281554
0.929121145173
0.930865855886
0.932647428729
0.93446373298
0.936313368099
0.938195576074
0.940110183232
0.942057566565
0.944038643581
0.946054882751
0.94810834147
0.950201722439
0.952338480055
0.954522925875
0.956760469487
0.959057729505
0.961423131793
0.963866684084
0.966401804337
0.969042882825
0.971812161456
0.974725899357
0.977824054029
0.981102523824
0.984649690191
0.988334216537
0.992444614781
0.996307807615
1.00139903239
0.953160409934
0.94396221281
0.936272602494
0.930005113961
0.92531897736
0.921877925963
0.919514060754
0.917986732746
0.91712868573
0.916790279492
0.916861394604
0.917254779146
0.917905027486
0.918761782409
0.919786675877
0.920950059421
0.922228945887
0.923605344022
0.925065099371
0.926597020816
0.928192247589
0.929843776849
0.931546112976
0.933295003886
0.935087242771
0.936920519172
0.938793308561
0.940704793292
0.942654809692
0.944643819757
0.946672903882
0.948743780484
0.950858842415
0.953021238784
0.955234950791
0.957504986725
0.95983743979
0.96223997535
0.964721517006
0.967293756517
0.969968694701
0.972764474287
0.975692546024
0.978783383349
0.982026359582
0.985489047358
0.989046238991
0.992938781246
0.996576747774
1.0012654841
0.955183447075
0.947000713612
0.939902823136
0.933906575704
0.929208095859
0.92559270107
0.922956671384
0.921116723189
0.919937912914
0.919291191274
0.91907695543
0.919212758469
0.919634419253
0.92029079598
0.921141699439
0.922155182941
0.923305834163
0.924573291902
0.925941190634
0.927396331537
0.92892806564
0.930527818395
0.932188726935
0.93390535922
0.935673496685
0.937489965691
0.939352507838
0.941259682225
0.943210794403
0.945205850089
0.947245529566
0.949331187426
0.951464866873
0.953649353694
0.95588821937
0.958185965705
0.960548029063
0.96298115568
0.965493016148
0.968093422554
0.970791920425
0.973602722575
0.976532996071
0.979605284371
0.982804346942
0.986182481614
0.989621925977
0.993330763151
0.996784178981
1.00116637411
0.956664134349
0.949359860321
0.942828764023
0.937146010741
0.932518809953
0.928822067225
0.926001956276
0.923925528463
0.922488416206
0.921583210447
0.921122655357
0.921031230255
0.921247820298
0.921722055109
0.922413136614
0.923287758629
0.924318791238
0.925484036522
0.926765317152
0.928147726563
0.929619053313
0.931169321767
0.932790431112
0.934475867357
0.936220474054
0.938020269163
0.939872299542
0.941774526748
0.943725739149
0.945725488167
0.947774044241
0.949872376014
0.952022141553
0.954225713162
0.956486187044
0.95880747754
0.961194271135
0.963652298562
0.966187895748
0.968808973096
0.97152270334
0.974339735525
0.977263575075
0.980310413305
0.983461866801
0.986759383417
0.990092583094
0.99364718736
0.996948277284
1.00109212903
0.957787628457
0.951216193805
0.945196666999
0.939831353633
0.93532303571
0.93160907222
0.928672536859
0.926422198662
0.924780964048
0.923662355706
0.922992095859
0.922702802322
0.922737697513
0.923048362755
0.923594376881
0.924341874895
0.925262637394
0.926333118392
0.927533704954
0.928848072262
0.930262668938
0.931766289665
0.933349727737
0.935005488815
0.936727556197
0.938511197848
0.940352808422
0.942249780966
0.944200403736
0.94620377991
0.948259765625
0.950368928804
0.952532517413
0.954752455471
0.957031320372
0.959372389762
0.961779550928
0.964257483606
0.966811184237
0.969446738174
0.972169126897
0.97498589468
0.977897515816
0.980915249001
0.984018659592
0.987241661318
0.990480589604
0.993905818022
0.997080478774
1.00103551561
0.958669146611
0.952696493915
0.947122206273
0.94205628364
0.937689067528
0.93399934569
0.930996315117
0.928621847927
0.926822116425
0.925529759979
0.924683207268
0.924223674829
0.924099474033
0.924264952351
0.924680813503
0.925313278951
0.926133570546
0.927117222411
0.928243526029
0.929495006891
0.930856984974
0.932317191396
0.933865444008
0.935493370331
0.937194173036
0.938962431398
0.940793934049
0.942685538927
0.944635056535
0.94664115439
0.948703278106
0.950821590707
0.952996918873
0.955230721632
0.957525037667
0.959882489668
0.962306155792
0.964799679011
0.96736676926
0.970011827091
0.972737878508
0.975549841916
0.978445745369
0.981433104328
0.984490218565
0.987645849795
0.99080218201
0.994118895698
0.997188265582
1.00099151249
0.959378738584
0.95388982472
0.948693926718
0.943898155841
0.939677266661
0.936036245442
0.933002040251
0.930541901308
0.928621159418
0.927189178123
0.926196203435
0.925591932073
0.925330073201
0.925368221493
0.92566872185
0.926198367737
0.926928247192
0.927833333376
0.928892118246
0.930086218983
0.93140002221
0.93282035293
0.93433618013
0.935938354682
0.93761937964
0.939373209771
0.941195077891
0.943081345309
0.945029373303
0.947037413781
0.949104514689
0.951230441138
0.953415601159
0.955660989337
0.957968107191
0.960338930767
0.962775751127
0.965281225922
0.967857871294
0.970508578976
0.973234676905
0.976038913347
0.978917383266
0.981874811104
0.984888779779
0.987984562972
0.991069315356
0.994295112108
0.997276726422
1.00095675339
0.959958741533
0.954858131255
0.94997832805
0.945418895056
0.941338721442
0.937758553476
0.934716909591
0.932199957391
0.930188353424
0.928645600489
0.92753249938
0.92680669525
0.926427248065
0.926355193287
0.926554820181
0.926993825642
0.927643481989
0.928478487676
0.929476783256
0.930619288208
0.931889632185
0.933273880652
0.934760274869
0.936338988767
0.938001907501
0.939742427964
0.941555281149
0.943436375115
0.945382656443
0.947391988674
0.949463043567
0.951595205699
0.953788479672
0.956043411449
0.958360985316
0.960742560762
0.963189688675
0.965704119356
0.968287293193
0.970940785045
0.97366448232
0.976459373911
0.979320054926
0.982249198014
0.985224039267
0.988267505472
0.991290909216
0.994440795659
0.99734944231
1.00092900002
0.960435063781
0.955644469635
0.951024861741
0.946667104115
0.942715472889
0.939199666131
0.936165405387
0.933612629991
0.931533954462
0.929904493883
0.928694157528
0.927867736671
0.927389325243
0.927223357086
0.927336182176
0.927696590697
0.928276255037
0.929049813224
0.929994853539
0.931091775952
0.932323608947
0.933675792662
0.935135955091
0.936693690131
0.938340346628
0.940068832006
0.941873432583
0.943749650868
0.945694058653
0.947704164872
0.94977829438
0.951915477933
0.954115343074
0.956378016192
0.958703999734
0.961094084209
0.963549146104
0.966070124386
0.968657516193
0.971311774192
0.974031589936
0.97681655063
0.979660107206
0.982563442315
0.985503683055
0.98850218316
0.991473686996
0.994560640683
0.99740900153
1.00090675265
0.960824023198
0.956278936302
0.951870128368
0.947680411587
0.943841416362
0.940387563187
0.937368817599
0.934794935113
0.932667647101
0.930971352601
0.929683573069
0.928775285715
0.928215108658
0.92797064658
0.928010269525
0.928303926179
0.928823811071
0.929544648067
0.930443824679
0.93150136724
0.932699837742
0.934024172097
0.935461491996
0.937000904628
0.938633303272
0.940351175355
0.942148422188
0.9440201921
0.945962726729
0.947973219949
0.950049685945
0.952190836633
0.954395958598
0.956664798996
0.958997426592
0.961394124243
0.963855173607
0.966380809799
0.968970725845
0.971624441451
0.974339677357
0.9771149239
0.979942774002
0.982823341295
0.985733785593
0.98869440959
0.991622747515
0.994658169835
0.997457308951
1.00088899039
0.961136291233
0.956782731536
0.95254111966
0.94848760186
0.944743386891
0.94134512847
0.938345120324
0.935759968423
0.933598187301
0.931851390094
0.930503248099
0.929529888141
0.928903813231
0.928595432308
0.928574968092
0.928813487488
0.929283746895
0.929960640769
0.930821463179
0.931845982021
0.933016406998
0.93431727783
0.935735309122
0.937259210689
0.938879499632
0.940588313403
0.942379229926
0.944247097804
0.94618787724
0.948198491648
0.950276686851
0.952420898071
0.954630115351
0.956903756355
0.959241514593
0.961643237077
0.96410869989
0.966637548375
0.969228811937
0.971881256755
0.974591835878
0.977358199648
0.980172310266
0.983033525469
0.985919110765
0.988848670161
0.991741958569
0.994736036297
0.997495778644
1.00087500655
0.961379087495
0.957170849197
0.953057595979
0.949110363563
0.945442186839
0.942090587891
0.939109016484
0.936518737463
0.934333158055
0.932549299228
0.931155597432
0.930132270258
0.929454985374
0.929096489437
0.929028592105
0.929223352518
0.929654059377
0.930295809342
0.931125871351
0.932123842477
0.933271675554
0.934553609941
0.935956044945
0.937467378326
0.939077828822
0.940779254109
0.942564971837
0.944429587866
0.946368833113
0.948379409416
0.950458841683
0.952605336591
0.954817638917
0.957094894146
0.959436486959
0.961841908036
0.96431052362
0.966841506573
0.969433361399
0.972084268856
0.974790596266
0.977549370204
0.980352101881
0.983197626129
0.986063338898
0.98896838523
0.991834230383
0.994796226412
0.997525457914
1.00086430674
0.961557374965
0.957453813163
0.953433767455
0.949564637253
0.945953455408
0.942637945541
0.939672051625
0.937080079156
0.934878795743
0.933069058536
0.931642775648
0.930583204427
0.929868410472
0.929472943052
0.929369860083
0.929532020535
0.929933160423
0.930548566732
0.931355519054
0.93233350788
0.933464308472
0.934731945008
0.936122586686
0.937624400857
0.939227384145
0.940923184607
0.942704923822
0.944567023888
0.946505041342
0.948515508791
0.950595781821
0.952743891521
0.954958394083
0.957238225969
0.959582535426
0.961990541775
0.964461301248
0.966993632629
0.969585651026
0.972235109002
0.9749379517
0.977690765739
0.98048475449
0.983318405295
0.986169236267
0.989056099741
0.991901706182
0.994840197714
0.997547109143
1.00085654635
0.96167450573
0.957638774791
0.953679445014
0.949861602751
0.946288350477
0.942997360867
0.94004274371
0.937450625472
0.935239868321
0.933413780133
0.931966530858
0.93088338691
0.930144021044
0.92972420567
0.929597857344
0.929738394228
0.930119873326
0.930717727016
0.931509256228
0.932473890851
0.933593295128
0.934851354742
0.936234088625
0.937729512338
0.939327475269
0.941019485868
0.942798534611
0.944658920279
0.94659608201
0.948606438138
0.950687229633
0.952836368541
0.955052283149
0.957333768287
0.959679812371
0.962089451985
0.96456153562
0.967094646372
0.969686642064
0.972334995203
0.975035377793
0.977784096283
0.980572162964
0.983397853722
0.986238778863
0.989113617863
0.991945893842
0.994868972962
0.997561264223
1.0008514923
0.961732568347
0.957730186339
0.953800795378
0.950008361254
0.946454044272
0.943175441525
0.940226699354
0.937634794915
0.935419594336
0.93358559851
0.932128091783
0.931033339102
0.930281818742
0.929849920674
0.929711998473
0.929841757572
0.930213422274
0.930802503222
0.931586316318
0.932544264328
0.933657958232
0.934911215979
0.936289982337
0.93778219753
0.939377637594
0.941067741225
0.942845433231
0.944704950498
0.946641673118
0.948651961855
0.95073299985
0.952882639035
0.955099243091
0.957381535362
0.9597284237
0.962138852796
0.96461156699
0.967145031689
0.969736976816
0.97238473652
0.975083848752
0.977830483791
0.980615562556
0.983437261058
0.98627323876
0.989142094966
0.99196775396
0.994883202523
0.997568260067
1.00084899995
0.961732568347
0.957730186339
0.953800795378
0.950008361254
0.946454044272
0.943175441525
0.940226699354
0.937634794915
0.935419594336
0.93358559851
0.932128091783
0.931033339102
0.930281818742
0.929849920674
0.929711998473
0.929841757572
0.930213422274
0.930802503222
0.931586316318
0.932544264328
0.933657958232
0.934911215979
0.936289982337
0.93778219753
0.939377637594
0.941067741225
0.942845433231
0.944704950498
0.946641673118
0.948651961855
0.95073299985
0.952882639035
0.955099243091
0.957381535362
0.9597284237
0.962138852796
0.96461156699
0.967145031689
0.969736976816
0.97238473652
0.975083848752
0.977830483791
0.980615562556
0.983437261058
0.98627323876
0.989142094966
0.99196775396
0.994883202523
0.997568260067
1.00084899995
0.96167450573
0.957638774791
0.953679445014
0.949861602751
0.946288350477
0.942997360867
0.94004274371
0.937450625472
0.935239868321
0.933413780133
0.931966530858
0.93088338691
0.930144021044
0.92972420567
0.929597857344
0.929738394228
0.930119873326
0.930717727016
0.931509256228
0.932473890851
0.933593295128
0.934851354742
0.936234088625
0.937729512338
0.939327475269
0.941019485868
0.942798534611
0.944658920279
0.94659608201
0.948606438138
0.950687229633
0.952836368541
0.955052283149
0.957333768287
0.959679812371
0.962089451985
0.96456153562
0.967094646372
0.969686642064
0.972334995203
0.975035377793
0.977784096283
0.980572162964
0.983397853722
0.986238778863
0.989113617863
0.991945893842
0.994868972962
0.997561264223
1.0008514923
0.961557374965
0.957453813163
0.953433767455
0.949564637253
0.945953455408
0.942637945541
0.939672051625
0.937080079156
0.934878795743
0.933069058536
0.931642775648
0.930583204427
0.929868410472
0.929472943052
0.929369860083
0.929532020535
0.929933160423
0.930548566732
0.931355519054
0.93233350788
0.933464308472
0.934731945008
0.936122586686
0.937624400857
0.939227384145
0.940923184607
0.942704923822
0.944567023888
0.946505041342
0.948515508791
0.950595781821
0.952743891521
0.954958394083
0.957238225969
0.959582535426
0.961990541775
0.964461301248
0.966993632629
0.969585651026
0.972235109002
0.9749379517
0.977690765739
0.98048475449
0.983318405295
0.986169236267
0.989056099741
0.991901706182
0.994840197714
0.997547109143
1.00085654635
0.961379087495
0.957170849197
0.953057595979
0.949110363563
0.945442186839
0.942090587891
0.939109016484
0.936518737463
0.934333158055
0.932549299228
0.931155597432
0.930132270258
0.929454985374
0.929096489437
0.929028592105
0.929223352518
0.929654059377
0.930295809342
0.931125871351
0.932123842477
0.933271675554
0.934553609941
0.935956044945
0.937467378326
0.939077828822
0.940779254109
0.942564971837
0.944429587866
0.946368833113
0.948379409416
0.950458841683
0.952605336591
0.954817638917
0.957094894146
0.959436486959
0.961841908036
0.96431052362
0.966841506573
0.969433361399
0.972084268856
0.974790596266
0.977549370204
0.980352101881
0.983197626129
0.986063338898
0.98896838523
0.991834230383
0.994796226412
0.997525457914
1.00086430674
0.961136291233
0.956782731536
0.95254111966
0.94848760186
0.944743386891
0.94134512847
0.938345120324
0.935759968423
0.933598187301
0.931851390094
0.930503248099
0.929529888141
0.928903813231
0.928595432308
0.928574968092
0.928813487488
0.929283746895
0.929960640769
0.930821463179
0.931845982021
0.933016406998
0.93431727783
0.935735309122
0.937259210689
0.938879499632
0.940588313403
0.942379229926
0.944247097804
0.94618787724
0.948198491648
0.950276686851
0.952420898071
0.954630115351
0.956903756355
0.959241514593
0.961643237077
0.96410869989
0.966637548375
0.969228811937
0.971881256755
0.974591835878
0.977358199648
0.980172310266
0.983033525469
0.985919110765
0.988848670161
0.991741958569
0.994736036297
0.997495778644
1.00087500655
0.960824023198
0.956278936302
0.951870128368
0.947680411587
0.943841416362
0.940387563187
0.937368817599
0.934794935113
0.932667647101
0.930971352601
0.929683573069
0.928775285715
0.928215108658
0.92797064658
0.928010269525
0.928303926179
0.928823811071
0.929544648067
0.930443824679
0.93150136724
0.932699837742
0.934024172097
0.935461491996
0.937000904628
0.938633303272
0.940351175355
0.942148422188
0.9440201921
0.945962726729
0.947973219949
0.950049685945
0.952190836633
0.954395958598
0.956664798996
0.958997426592
0.961394124243
0.963855173607
0.966380809799
0.968970725845
0.971624441451
0.974339677357
0.9771149239
0.979942774002
0.982823341295
0.985733785593
0.98869440959
0.991622747515
0.994658169835
0.997457308951
1.00088899039
0.960435063781
0.955644469635
0.951024861741
0.946667104115
0.942715472889
0.939199666131
0.936165405387
0.933612629991
0.931533954462
0.929904493883
0.928694157528
0.927867736671
0.927389325243
0.927223357086
0.927336182176
0.927696590697
0.928276255037
0.929049813224
0.929994853539
0.931091775952
0.932323608947
0.933675792662
0.935135955091
0.936693690131
0.938340346628
0.940068832006
0.941873432583
0.943749650868
0.945694058653
0.947704164872
0.94977829438
0.951915477933
0.954115343074
0.956378016192
0.958703999734
0.961094084209
0.963549146104
0.966070124386
0.968657516193
0.971311774192
0.974031589936
0.97681655063
0.979660107206
0.982563442315
0.985503683055
0.98850218316
0.991473686996
0.994560640683
0.99740900153
1.00090675265
0.959958741533
0.954858131255
0.94997832805
0.945418895056
0.941338721442
0.937758553476
0.934716909591
0.932199957391
0.930188353424
0.928645600489
0.92753249938
0.92680669525
0.926427248065
0.926355193287
0.926554820181
0.926993825642
0.927643481989
0.928478487676
0.929476783256
0.930619288208
0.931889632185
0.933273880652
0.934760274869
0.936338988767
0.938001907501
0.939742427964
0.941555281149
0.943436375115
0.945382656443
0.947391988674
0.949463043567
0.951595205699
0.953788479672
0.956043411449
0.958360985316
0.960742560762
0.963189688675
0.965704119356
0.968287293193
0.970940785045
0.97366448232
0.976459373911
0.979320054926
0.982249198014
0.985224039267
0.988267505472
0.991290909216
0.994440795659
0.99734944231
1.00092900002
0.959378738584
0.95388982472
0.948693926718
0.943898155841
0.939677266661
0.936036245442
0.933002040251
0.930541901308
0.928621159418
0.927189178123
0.926196203435
0.925591932073
0.925330073201
0.925368221493
0.92566872185
0.926198367737
0.926928247192
0.927833333376
0.928892118246
0.930086218983
0.93140002221
0.93282035293
0.93433618013
0.935938354682
0.93761937964
0.939373209771
0.941195077891
0.943081345309
0.945029373303
0.947037413781
0.949104514689
0.951230441138
0.953415601159
0.955660989337
0.957968107191
0.960338930767
0.962775751127
0.965281225922
0.967857871294
0.970508578976
0.973234676905
0.976038913347
0.978917383266
0.981874811104
0.984888779779
0.987984562972
0.991069315356
0.994295112108
0.997276726422
1.00095675339
0.958669146611
0.952696493915
0.947122206273
0.94205628364
0.937689067528
0.93399934569
0.930996315117
0.928621847927
0.926822116425
0.925529759979
0.924683207268
0.924223674829
0.924099474033
0.924264952351
0.924680813503
0.925313278951
0.926133570546
0.927117222411
0.928243526029
0.929495006891
0.930856984974
0.932317191396
0.933865444008
0.935493370331
0.937194173036
0.938962431398
0.940793934049
0.942685538927
0.944635056535
0.94664115439
0.948703278106
0.950821590707
0.952996918873
0.955230721632
0.957525037667
0.959882489668
0.962306155792
0.964799679011
0.96736676926
0.970011827091
0.972737878508
0.975549841916
0.978445745369
0.981433104328
0.984490218565
0.987645849795
0.99080218201
0.994118895698
0.997188265582
1.00099151249
0.957787628457
0.951216193805
0.945196666999
0.939831353633
0.93532303571
0.93160907222
0.928672536859
0.926422198662
0.924780964048
0.923662355706
0.922992095859
0.922702802322
0.922737697513
0.923048362755
0.923594376881
0.924341874895
0.925262637394
0.926333118392
0.927533704954
0.928848072262
0.930262668938
0.931766289665
0.933349727737
0.935005488815
0.936727556197
0.938511197848
0.940352808422
0.942249780966
0.944200403736
0.94620377991
0.948259765625
0.950368928804
0.952532517413
0.954752455471
0.957031320372
0.959372389762
0.961779550928
0.964257483606
0.966811184237
0.969446738174
0.972169126897
0.97498589468
0.977897515816
0.980915249001
0.984018659592
0.987241661318
0.990480589604
0.993905818022
0.997080478774
1.00103551561
0.956664134349
0.949359860321
0.942828764023
0.937146010741
0.932518809953
0.928822067225
0.926001956276
0.923925528463
0.922488416206
0.921583210447
0.921122655357
0.921031230255
0.921247820298
0.921722055109
0.922413136614
0.923287758629
0.924318791238
0.925484036522
0.926765317152
0.928147726563
0.929619053313
0.931169321767
0.932790431112
0.934475867357
0.936220474054
0.938020269163
0.939872299542
0.941774526748
0.943725739149
0.945725488167
0.947774044241
0.949872376014
0.952022141553
0.954225713162
0.956486187044
0.95880747754
0.961194271135
0.963652298562
0.966187895748
0.968808973096
0.97152270334
0.974339735525
0.977263575075
0.980310413305
0.983461866801
0.986759383417
0.990092583094
0.99364718736
0.996948277284
1.00109212903
0.955183447075
0.947000713612
0.939902823136
0.933906575704
0.929208095859
0.92559270107
0.922956671384
0.921116723189
0.919937912914
0.919291191274
0.91907695543
0.919212758469
0.919634419253
0.92029079598
0.921141699439
0.922155182941
0.923305834163
0.924573291902
0.925941190634
0.927396331537
0.92892806564
0.930527818395
0.932188726935
0.93390535922
0.935673496685
0.937489965691
0.939352507838
0.941259682225
0.943210794403
0.945205850089
0.947245529566
0.949331187426
0.951464866873
0.953649353694
0.95588821937
0.958185965705
0.960548029063
0.96298115568
0.965493016148
0.968093422554
0.970791920425
0.973602722575
0.976532996071
0.979605284371
0.982804346942
0.986182481614
0.989621925977
0.993330763151
0.996784178981
1.00116637411
0.953160409934
0.94396221281
0.936272602494
0.930005113961
0.92531897736
0.921877925963
0.919514060754
0.917986732746
0.91712868573
0.916790279492
0.916861394604
0.917254779146
0.917905027486
0.918761782409
0.919786675877
0.920950059421
0.922228945887
0.923605344022
0.925065099371
0.926597020816
0.928192247589
0.929843776849
0.931546112976
0.933295003886
0.935087242771
0.936920519172
0.938793308561
0.940704793292
0.942654809692
0.944643819757
0.946672903882
0.948743780484
0.950858842415
0.953021238784
0.955234950791
0.957504986725
0.95983743979
0.96223997535
0.964721517006
0.967293756517
0.969968694701
0.972764474287
0.975692546024
0.978783383349
0.982026359582
0.985489047358
0.989046238991
0.992938781246
0.996576747774
1.0012654841
0.95030897885
0.940007482008
0.931762760277
0.92532710285
0.920785060238
0.917645962719
0.915664192119
0.914538684922
0.91407076797
0.914093718983