/*--------------------------------*- C++ -*----------------------------------*\
| =========                 |                                                 |
| \\      /  F ield         | OpenFOAM: The Open Source CFD Toolbox           |
|  \\    /   O peration     | Version:  2.4.0                                 |
|   \\  /    A nd           | Web:      www.OpenFOAM.org                      |
|    \\/     M anipulation  |                                                 |
\*---------------------------------------------------------------------------*/
FoamFile
{
    version     2.0;
    format      ascii;
    class       volVectorField;
    location    "400";
    object      U;
}
// * * * * * * * * * * * * * * * * * * * * * * * * * * * * * * * * * * * * * //

dimensions      [0 1 -1 0 0 0 0];

internalField   nonuniform List<vector> 
2500
(
(-0.112385521505 -0.0138005228082 0)
(-0.0855495832013 -0.0094036010444 0)
(-0.0703107606264 -0.00481233419715 0)
(-0.0615798964777 -0.00270613750029 0)
(-0.05604145578 -0.00161128584972 0)
(-0.0523519725308 -0.00105442909343 0)
(-0.0497104933315 -0.000731519659158 0)
(-0.0477494214651 -0.000533707833043 0)
(-0.0462449675542 -0.000401107509474 0)
(-0.0450696657336 -0.000307732246865 0)
(-0.0441396341127 -0.000238556025152 0)
(-0.0433992691943 -0.00018562804726 0)
(-0.0428090997083 -0.000143949224727 0)
(-0.042340517317 -0.000110424949924 0)
(-0.0419720677668 -8.29534443276e-05 0)
(-0.0416873828002 -6.00893125635e-05 0)
(-0.0414737508774 -4.07874930359e-05 0)
(-0.0413211978166 -2.42773497955e-05 0)
(-0.0412218378059 -9.97289667067e-06 0)
(-0.0411694211224 2.58040183704e-06 0)
(-0.0411590055998 1.37431814988e-05 0)
(-0.0411867173723 2.38071179875e-05 0)
(-0.0412495737538 3.30129184879e-05 0)
(-0.0413453523383 4.15632073129e-05 0)
(-0.0414724947851 4.96321849345e-05 0)
(-0.0416300378543 5.73729769876e-05 0)
(-0.0418175665404 6.4923415887e-05 0)
(-0.0420351860018 7.2410696176e-05 0)
(-0.0422835102737 7.99552261566e-05 0)
(-0.0425636668059 8.7673851755e-05 0)
(-0.0428773167827 9.56825346713e-05 0)
(-0.0432266919108 0.000104098334736 0)
(-0.0436146492193 0.000113040369054 0)
(-0.0440447455977 0.000122628558058 0)
(-0.0445213348139 0.000132978539935 0)
(-0.0450496875601 0.000144187738421 0)
(-0.0456361382716 0.000156307932403 0)
(-0.0462882532137 0.000169288319848 0)
(-0.0470150407681 0.000182889080894 0)
(-0.0478272154873 0.000196538253073 0)
(-0.0487377199592 0.00020924648073 0)
(-0.0497628748854 0.000219675931157 0)
(-0.0509254969369 0.000227319214253 0)
(-0.0522632425243 0.000235929384239 0)
(-0.0538469255926 0.000264130067437 0)
(-0.0558319030965 0.00036830312103 0)
(-0.0585210177791 0.000691407742861 0)
(-0.0626372235895 0.00153570304553 0)
(-0.06907034982 0.00357142970825 0)
(-0.0807034055736 0.0081677608406 0)
(-0.256880129552 -0.0429325430346 0)
(-0.226631085165 -0.030919758299 0)
(-0.205649790383 -0.0182758892507 0)
(-0.19067031947 -0.0119228868722 0)
(-0.179642420112 -0.00802730202499 0)
(-0.171438033325 -0.00572995439779 0)
(-0.165168956931 -0.00421900427903 0)
(-0.160308998556 -0.00319097891629 0)
(-0.156486020889 -0.00244759256753 0)
(-0.153454254934 -0.00189196542746 0)
(-0.151038774113 -0.00146191674981 0)
(-0.149114903931 -0.00112095199052 0)
(-0.147590344281 -0.000844581143236 0)
(-0.146395738864 -0.000616567037245 0)
(-0.145477836326 -0.000425389863217 0)
(-0.144795236932 -0.000262763303393 0)
(-0.144315386823 -0.000122491562449 0)
(-0.144012532527 1.51538812602e-07 0)
(-0.143866249244 0.000108868906528 0)
(-0.143860384292 0.000206622408226 0)
(-0.143982279147 0.000295835524607 0)
(-0.144222195039 0.000378534376964 0)
(-0.144572886212 0.000456452442247 0)
(-0.145029285683 0.000531109139767 0)
(-0.145588278629 0.000603871619598 0)
(-0.146248547081 0.000676004995059 0)
(-0.147010475088 0.000748715250326 0)
(-0.147876107888 0.000823187784057 0)
(-0.148849162103 0.000900624099688 0)
(-0.149935087084 0.000982278797195 0)
(-0.151141180747 0.00106949905935 0)
(-0.152476766624 0.00116376881353 0)
(-0.153953443762 0.00126676040998 0)
(-0.155585426355 0.00138039641835 0)
(-0.157390001413 0.00150692672246 0)
(-0.159388142554 0.00164902385129 0)
(-0.161605353395 0.00180991256402 0)
(-0.164072830562 0.00199354036727 0)
(-0.166829161533 0.00220487212443 0)
(-0.169922767171 0.00245036229083 0)
(-0.173415724271 0.00273908648016 0)
(-0.17738930613 0.00308488053394 0)
(-0.181952590719 0.00351196905827 0)
(-0.187253851121 0.0040653219453 0)
(-0.193491929714 0.00483626328477 0)
(-0.200929150642 0.00600106296836 0)
(-0.209833226267 0.00790957000644 0)
(-0.2205000481 0.011145145793 0)
(-0.232553543983 0.0167273659963 0)
(-0.246113733549 0.02502652338 0)
(-0.324278219384 -0.0622387500261 0)
(-0.307514736744 -0.0476617888229 0)
(-0.293048114838 -0.031335959427 0)
(-0.280645537399 -0.0222944585948 0)
(-0.270499761894 -0.0159768362748 0)
(-0.262361537055 -0.0118883792137 0)
(-0.255837130283 -0.00898673032723 0)
(-0.250609743582 -0.00690012145633 0)
(-0.246411670498 -0.00532761178926 0)
(-0.24304304285 -0.00411465162332 0)
(-0.240349114172 -0.00315254493338 0)
(-0.238212065958 -0.00237431802345 0)
(-0.236540303512 -0.00173282702931 0)
(-0.235262267663 -0.00119569539228 0)
(-0.234321371531 -0.000739247972106 0)
(-0.233672610625 -0.000346011393159 0)
(-0.233280010455 -2.62436483696e-06 0)
(-0.23311479666 0.000301315604031 0)
(-0.233154022469 0.000574113027933 0)
(-0.233379547167 0.000822530580974 0)
(-0.233777262078 0.00105219838939 0)
(-0.2343365052 0.00126790520371 0)
(-0.235049618284 0.00147381950958 0)
(-0.23591161618 0.00167365945272 0)
(-0.236919946384 0.00187082982272 0)
(-0.238074323823 0.00206853650598 0)
(-0.239376630566 0.00226988711016 0)
(-0.240830873969 0.00247798410075 0)
(-0.242443199793 0.00269601608412 0)
(-0.244221959399 0.00292735240054 0)
(-0.246177832759 0.00317564658819 0)
(-0.248324011185 0.0034449548579 0)
(-0.250676447455 0.0037398778587 0)
(-0.253254182346 0.00406573543662 0)
(-0.256079765985 0.00442879138774 0)
(-0.259179787132 0.00483654654673 0)
(-0.262585557151 0.00529814725062 0)
(-0.266333944814 0.00582494917925 0)
(-0.270468496211 0.00643140340033 0)
(-0.2750406477 0.00713634909005 0)
(-0.280111425006 0.00796537302375 0)
(-0.285752182059 0.00895422269928 0)
(-0.292045413991 0.0101558609341 0)
(-0.299077649693 0.0116487656878 0)
(-0.306926594467 0.0135564936206 0)
(-0.315609408646 0.0160539956168 0)
(-0.32499489051 0.0194093847836 0)
(-0.334604409346 0.0238745053117 0)
(-0.343353768258 0.0298057806477 0)
(-0.349599374631 0.0365469678779 0)
(-0.362298278872 -0.0692262389823 0)
(-0.357568645745 -0.0553748001595 0)
(-0.350892454237 -0.0390715515094 0)
(-0.343527524892 -0.02931029856 0)
(-0.336629800076 -0.0218222384094 0)
(-0.330561319652 -0.0166712018238 0)
(-0.325407121874 -0.0128050161742 0)
(-0.321115874103 -0.00991175085937 0)
(-0.317589073273 -0.00765809308363 0)
(-0.31472539028 -0.0058747693482 0)
(-0.312431488581 -0.00443008461961 0)
(-0.310627542844 -0.0032409572642 0)
(-0.309246440146 -0.00224593746487 0)
(-0.308232622597 -0.00140170244022 0)
(-0.30754026522 -0.000675594986096 0)
(-0.307131738619 -4.29658315633e-05 0)
(-0.30697623919 0.000515447478742 0)
(-0.307048686357 0.00101491942024 0)
(-0.307328821121 0.00146785202748 0)
(-0.307800485952 0.00188449780176 0)
(-0.308451046803 0.0022735099614 0)
(-0.309270932215 0.00264233928785 0)
(-0.310253266161 0.00299754204128 0)
(-0.311393577478 0.00334501998517 0)
(-0.312689571753 0.00369021655715 0)
(-0.314140954633 0.00403828209114 0)
(-0.315749297468 0.00439421944945 0)
(-0.317517937599 0.00476301808481 0)
(-0.319451906419 0.00514978360092 0)
(-0.321557878366 0.00555986896277 0)
(-0.32384413391 0.00599901364979 0)
(-0.326320527444 0.00647349714685 0)
(-0.328998450681 0.00699031502813 0)
(-0.331890773916 0.0075573861194 0)
(-0.335011751973 0.00818380626072 0)
(-0.338376848691 0.00888016093207 0)
(-0.342002472658 0.00965893770729 0)
(-0.345905464532 0.0105350504308 0)
(-0.350102412359 0.0115266143627 0)
(-0.354608104143 0.0126559172884 0)
(-0.359433751316 0.0139511206306 0)
(-0.364581658406 0.0154480101024 0)
(-0.370040416151 0.0171939846946 0)
(-0.375764251577 0.0192491162007 0)
(-0.381662431499 0.0216945738596 0)
(-0.387517103023 0.0246147552782 0)
(-0.39299940247 0.0281148298704 0)
(-0.397338496828 0.0321677685996 0)
(-0.399856223608 0.0367438655615 0)
(-0.398480535056 0.0409944326269 0)
(-0.388628203029 -0.0686829047066 0)
(-0.391917571353 -0.0569596903785 0)
(-0.391273037135 -0.0423678023083 0)
(-0.388515100856 -0.0329895753318 0)
(-0.384963748735 -0.0252678939941 0)
(-0.381307261822 -0.0196752197814 0)
(-0.377917198527 -0.0152758656309 0)
(-0.374935046806 -0.0118684724255 0)
(-0.372401550469 -0.00913651991015 0)
(-0.370305959645 -0.00692583619957 0)
(-0.368617043524 -0.00510139412036 0)
(-0.367296791928 -0.00357669514384 0)
(-0.366307198013 -0.00228423578228 0)
(-0.365613114802 -0.00117528524154 0)
(-0.365183336517 -0.000211959567988 0)
(-0.364990798738 0.000634934810533 0)
(-0.365012395966 0.00138868185354 0)
(-0.365228639624 0.00206804172252 0)
(-0.365623272683 0.00268846160545 0)
(-0.36618289059 0.00326285390458 0)
(-0.366896591272 0.00380221232792 0)
(-0.367755660655 0.00431605944208 0)
(-0.368753293559 0.00481280026442 0)
(-0.369884346003 0.00529999907184 0)
(-0.371145113399 0.00578460589882 0)
(-0.372533128156 0.00627314524536 0)
(-0.374046969656 0.00677187884179 0)
(-0.375686078849 0.0072869501297 0)
(-0.377450568988 0.00782451695025 0)
(-0.379341022483 0.00839087736903 0)
(-0.381358262798 0.008992593091 0)
(-0.383503086371 0.00963661404646 0)
(-0.385775939807 0.0103304085351 0)
(-0.388176515167 0.0110821016139 0)
(-0.390703248306 0.0119006297038 0)
(-0.393352654687 0.0127959112813 0)
(-0.396118519017 0.0137790591648 0)
(-0.398990712914 0.0148626151481 0)
(-0.401953879401 0.0160609092931 0)
(-0.404984981392 0.0173903946915 0)
(-0.408051273761 0.01887039374 0)
(-0.411103723741 0.0205232850851 0)
(-0.414075179292 0.0223761128962 0)
(-0.416857435326 0.0244578171424 0)
(-0.419312708513 0.0268022596208 0)
(-0.421178616093 0.0294243945065 0)
(-0.422205894491 0.0323291604926 0)
(-0.421699694363 0.0353776166514 0)
(-0.419618006203 0.0383892081425 0)
(-0.413911326354 0.0406849538488 0)
(-0.407644387756 -0.0642088028392 0)
(-0.415755587823 -0.0549458548124 0)
(-0.419255541089 -0.0425860585671 0)
(-0.420007822985 -0.0340899144547 0)
(-0.419201129146 -0.0266849657955 0)
(-0.417664814605 -0.0210675755802 0)
(-0.415894992019 -0.0164729459495 0)
(-0.414149680086 -0.0128062446128 0)
(-0.412562145605 -0.00979295765148 0)
(-0.411189483566 -0.00730733827008 0)
(-0.410050420123 -0.00522349409146 0)
(-0.409142832614 -0.00345986584039 0)
(-0.40845491036 -0.00194914592047 0)
(-0.407970609491 -0.000641653198056 0)
(-0.407672804981 0.000502424818094 0)
(-0.407544810109 0.00151435839948 0)
(-0.407571148093 0.00241955401941 0)
(-0.407737847804 0.00323875590855 0)
(-0.408032508629 0.00398923024286 0)
(-0.408444230009 0.00468551254536 0)
(-0.408963476459 0.00534002700798 0)
(-0.409581909042 0.00596353767459 0)
(-0.410292202961 0.00656551104847 0)
(-0.411087859265 0.00715439975392 0)
(-0.411963014105 0.00773787377571 0)
(-0.412912245067 0.0083230096975 0)
(-0.413930372248 0.00891644915138 0)
(-0.415012250022 0.009524533055 0)
(-0.4161525446 0.0101534172167 0)
(-0.417345491006 0.010809173091 0)
(-0.418584623255 0.0114978768547 0)
(-0.419862468121 0.0122256888459 0)
(-0.421170197173 0.0129989259991 0)
(-0.42249721816 0.0138241278743 0)
(-0.423830712269 0.0147081218202 0)
(-0.425155057882 0.0156580840138 0)
(-0.426451216849 0.016681617076 0)
(-0.427695822379 0.0177868183407 0)
(-0.428860422537 0.0189824237264 0)
(-0.429909583994 0.0202778619171 0)
(-0.430800381762 0.0216835768258 0)
(-0.43147661246 0.0232106589888 0)
(-0.431871831044 0.0248714045814 0)
(-0.431886166958 0.0266756622107 0)
(-0.431416738451 0.0286310860813 0)
(-0.430251333146 0.0307217719751 0)
(-0.428283283933 0.0329088250329 0)
(-0.424970948617 0.0350388514993 0)
(-0.420681393788 0.0368928869421 0)
(-0.413588566954 0.0380573001718 0)
(-0.420613768283 -0.058070159303 0)
(-0.431165376428 -0.0511055983205 0)
(-0.437212811455 -0.0409672930888 0)
(-0.440372485413 -0.0335237732812 0)
(-0.441594636623 -0.0267064191001 0)
(-0.441712856596 -0.0213090270504 0)
(-0.441243579593 -0.0167469600081 0)
(-0.440502637735 -0.0130093079405 0)
(-0.439675502823 -0.00987314143197 0)
(-0.438864904671 -0.00724376362954 0)
(-0.438125723614 -0.00501079422744 0)
(-0.437483849783 -0.00310187494189 0)
(-0.436948907258 -0.00145377620172 0)
(-0.436521163363 -1.8777788854e-05 0)
(-0.436195906795 0.00124250685908 0)
(-0.435965868061 0.00236157381595 0)
(-0.435822676565 0.00336444885922 0)
(-0.435757650135 0.0042726254412 0)
(-0.435762226282 0.00510414770759 0)
(-0.435828159744 0.00587427721128 0)
(-0.435947587886 0.00659607610378 0)
(-0.436113012861 0.00728083334981 0)
(-0.43631723524 0.00793841465728 0)
(-0.436553257284 0.00857753708723 0)
(-0.436814167481 0.00920599365959 0)
(-0.437093012271 0.0098308358055 0)
(-0.437382658187 0.0104585240663 0)
(-0.437675645434 0.0110950527735 0)
(-0.437964033149 0.0117460539568 0)
(-0.438239235209 0.0124168840819 0)
(-0.438491846474 0.0131126968486 0)
(-0.438711455884 0.0138385043732 0)
(-0.438886449646 0.0145992298031 0)
(-0.439003790941 0.0153997527252 0)
(-0.439048797282 0.0162449531625 0)
(-0.439004851556 0.01713975193 0)
(-0.438853159954 0.0180891646156 0)
(-0.438572239606 0.019098344157 0)
(-0.438137736752 0.0201726723383 0)
(-0.437520988609 0.0213177459811 0)
(-0.436689552368 0.0225394904429 0)
(-0.435601685574 0.0238435950971 0)
(-0.434212193296 0.0252352767305 0)
(-0.432448461211 0.0267156295458 0)
(-0.430250956975 0.0282793218957 0)
(-0.427462060027 0.029898492021 0)
(-0.424071773401 0.0315148135034 0)
(-0.419665851916 0.0329938403708 0)
(-0.414768410044 0.0341234517628 0)
(-0.407848392117 0.0347093660336 0)
(-0.428333654555 -0.051545969162 0)
(-0.439658120524 -0.0465015427642 0)
(-0.447016766013 -0.0383529833711 0)
(-0.451653143142 -0.0319727025981 0)
(-0.45425192115 -0.025858644096 0)
(-0.455558472662 -0.0208224629808 0)
(-0.456050131728 -0.0164431974462 0)
(-0.456057081279 -0.0127705334967 0)
(-0.455786896295 -0.00963387982646 0)
(-0.455369369507 -0.00696750728759 0)
(-0.454883344075 -0.00467918335333 0)
(-0.454375287421 -0.00270749593313 0)
(-0.453871547792 -0.000995488725193 0)
(-0.453385857303 0.000500863721055 0)
(-0.452924227686 0.00181897929275 0)
(-0.452487912606 0.00298932293391 0)
(-0.452075301043 0.00403748224565 0)
(-0.451683063284 0.00498482232934 0)
(-0.451306862511 0.00584942722915 0)
(-0.450941774773 0.00664666288223 0)
(-0.450582532326 0.00738970311326 0)
(-0.450223651186 0.00808991699671 0)
(-0.44985948686 0.00875719618079 0)
(-0.449484243744 0.0094002148366 0)
(-0.449091955601 0.0100266455139 0)
(-0.448676447709 0.0106433361117 0)
(-0.448231287744 0.011256457396 0)
(-0.44774972969 0.0118716260129 0)
(-0.447224653813 0.0124940079964 0)
(-0.446648503806 0.013128406318 0)
(-0.446013223059 0.0137793358181 0)
(-0.445310187169 0.0144510880713 0)
(-0.444530137235 0.0151477892198 0)
(-0.443663097171 0.0158734521965 0)
(-0.442698298103 0.0166320275673 0)
(-0.44162403109 0.0174274499448 0)
(-0.440427555152 0.0182636887946 0)
(-0.439094691044 0.0191447778947 0)
(-0.43760978708 0.0200748477853 0)
(-0.43595428628 0.0210580300987 0)
(-0.434107534896 0.0220983173499 0)
(-0.432041163118 0.0231988151083 0)
(-0.429726088837 0.0243607263755 0)
(-0.427108888002 0.0255800497494 0)
(-0.424156057145 0.026843332739 0)
(-0.420747467274 0.0281176378897 0)
(-0.416920582595 0.0293371864719 0)
(-0.412358079589 0.0303940907819 0)
(-0.40759698066 0.0311044441087 0)
(-0.40138700447 0.0314083839805 0)
(-0.431776554115 -0.0453116280577 0)
(-0.442822883862 -0.0417545577124 0)
(-0.450614591057 -0.0352903854849 0)
(-0.456014230856 -0.0299074545943 0)
(-0.459459874015 -0.0245279305092 0)
(-0.461560233253 -0.0199305412814 0)
(-0.462723175875 -0.0158302410215 0)
(-0.463262562473 -0.0123178592082 0)
(-0.463386978963 -0.00927115731343 0)
(-0.463238473361 -0.00664970844423 0)
(-0.462909885309 -0.00437988972113 0)
(-0.462461769672 -0.00241160232314 0)
(-0.461932968153 -0.000695254087595 0)
(-0.46134802639 0.000808551518121 0)
(-0.460722071712 0.00213433105853 0)
(-0.460064012156 0.0033107357178 0)
(-0.459378649341 0.00436224010306 0)
(-0.458668050182 0.00530952549346 0)
(-0.457932450105 0.00617026007083 0)
(-0.457170839399 0.00695955021408 0)
(-0.456381346655 0.00769039845174 0)
(-0.45556148631 0.00837404532629 0)
(-0.454708317949 0.00902026885024 0)
(-0.453818546915 0.00963762688086 0)
(-0.452888586578 0.010233662924 0)
(-0.451914595211 0.0108150778648 0)
(-0.450892496234 0.0113878757156 0)
(-0.449817987142 0.0119574872586 0)
(-0.44868654068 0.0125288759171 0)
(-0.447493399112 0.0131066288581 0)
(-0.446233562889 0.0136950361017 0)
(-0.444901768898 0.0142981595598 0)
(-0.443492461157 0.0149198938651 0)
(-0.44199973261 0.015564019121 0)
(-0.440417260048 0.0162342464216 0)
(-0.438738143864 0.0169342507906 0)
(-0.436954787882 0.0176676899381 0)
(-0.435058430002 0.0184381833488 0)
(-0.433039058974 0.0192492416158 0)
(-0.430883911068 0.0201040505132 0)
(-0.428578348578 0.0210050667129 0)
(-0.426100475931 0.0219531368689 0)
(-0.423428663944 0.0229459402468 0)
(-0.420519911793 0.0239753182215 0)
(-0.417353949835 0.0250222030831 0)
(-0.413837358547 0.026051993665 0)
(-0.410028031767 0.0269995996136 0)
(-0.405683127411 0.0277821920677 0)
(-0.40129435263 0.0282523206897 0)
(-0.39583877939 0.0284167655066 0)
(-0.432100307728 -0.0396701107072 0)
(-0.442306329059 -0.037203565694 0)
(-0.44997100913 -0.0321140990387 0)
(-0.455635620969 -0.0276265852184 0)
(-0.459535911138 -0.0229639697851 0)
(-0.462131583922 -0.0188403885415 0)
(-0.463749563184 -0.0150760254007 0)
(-0.464668119495 -0.0117871601061 0)
(-0.465082773804 -0.00889346793759 0)
(-0.465136432972 -0.00637576316999 0)
(-0.464927969398 -0.00417822321893 0)
(-0.464526420257 -0.00226170015941 0)
(-0.463979300618 -0.00058436425736 0)
(-0.463319396606 0.000888117297632 0)
(-0.462569250752 0.00218683227981 0)
(-0.461744339703 0.00333815200255 0)
(-0.460855225377 0.00436502046237 0)
(-0.459909030227 0.00528709061262 0)
(-0.458910445128 0.00612133538429 0)
(-0.45786242031 0.00688238637681 0)
(-0.456766642108 0.00758291741374 0)
(-0.455623863428 0.00823393651535 0)
(-0.454434134898 0.00884505274103 0)
(-0.453196967569 0.00942469707878 0)
(-0.451911448275 0.009980314518 0)
(-0.450576321492 0.0105185270901 0)
(-0.44919004689 0.0110452742769 0)
(-0.447750838124 0.0115659333208 0)
(-0.446256686315 0.0120854227487 0)
(-0.444705368658 0.0126082911903 0)
(-0.443094442934 0.0131387932894 0)
(-0.441421222213 0.0136809535978 0)
(-0.439682732215 0.0142386187691 0)
(-0.437875629092 0.0148154966936 0)
(-0.435996101131 0.015415180178 0)
(-0.434039667007 0.0160411482525 0)
(-0.432001013377 0.0166967354068 0)
(-0.429873494179 0.0173850469075 0)
(-0.427649042123 0.0181087863573 0)
(-0.425316760616 0.018869941458 0)
(-0.422863938332 0.0196692018391 0)
(-0.420271315836 0.0205050633035 0)
(-0.417520796371 0.0213720743054 0)
(-0.414576639723 0.0222589245662 0)
(-0.411426943782 0.0231435245109 0)
(-0.408000056886 0.023992267442 0)
(-0.404362148308 0.0247461552847 0)
(-0.400326379804 0.0253431290263 0)
(-0.396324965495 0.025671361375 0)
(-0.391503089311 0.0257636476517 0)
(-0.430461347029 -0.0347097587736 0)
(-0.439609689503 -0.0330121447937 0)
(-0.446840607324 -0.0290150199629 0)
(-0.452457851981 -0.0253057752137 0)
(-0.456547484111 -0.0213118862019 0)
(-0.459431808354 -0.0176659314943 0)
(-0.461357706961 -0.0142643157926 0)
(-0.462558235031 -0.0112361865916 0)
(-0.463207176718 -0.00853554816338 0)
(-0.463439970123 -0.00616035232431 0)
(-0.463355253448 -0.00407096761696 0)
(-0.463025740603 -0.00223840792014 0)
(-0.462504135524 -0.000628548948533 0)
(-0.461828918053 0.000787758698866 0)
(-0.461028195984 0.00203790623948 0)
(-0.460122654208 0.0031457120486 0)
(-0.459127600174 0.00413232097749 0)
(-0.458054435754 0.00501612373202 0)
(-0.456911692524 0.00581319856655 0)
(-0.455705769611 0.00653754015342 0)
(-0.454441459612 0.00720136515951 0)
(-0.453122326886 0.00781535118706 0)
(-0.451750981401 0.00838886666666 0)
(-0.450329278314 0.00893016603056 0)
(-0.448858463836 0.00944656357432 0)
(-0.447339281296 0.00994458324478 0)
(-0.445772046727 0.0104300889158 0)
(-0.44415669975 0.010908396297 0)
(-0.442492833468 0.0113843686845 0)
(-0.440779704149 0.0118624976874 0)
(-0.43901622197 0.0123469697898 0)
(-0.437200917883 0.012841718746 0)
(-0.435331890313 0.013350462922 0)
(-0.433406711625 0.0138767252731 0)
(-0.431422320635 0.0144238314564 0)
(-0.429374820913 0.0149948789294 0)
(-0.427259330948 0.0155926627248 0)
(-0.425069536464 0.0162195417851 0)
(-0.422797677062 0.0168771996618 0)
(-0.420433366818 0.0175662828584 0)
(-0.417964773437 0.0182857498338 0)
(-0.415374682015 0.0190320580419 0)
(-0.412648060336 0.0197974843345 0)
(-0.409756066608 0.0205689151631 0)
(-0.406693634108 0.0213236283764 0)
(-0.403407212598 0.022030844412 0)
(-0.399965467669 0.0226402029387 0)
(-0.396221632082 0.0231057137932 0)
(-0.392552067902 0.0233455872274 0)
(-0.388220682187 0.0233983911645 0)
(-0.427832633046 -0.0304031463173 0)
(-0.435918886494 -0.0292336096599 0)
(-0.442589057822 -0.0260873639371 0)
(-0.447988921489 -0.0230372226029 0)
(-0.452104151077 -0.0196458081547 0)
(-0.455143333609 -0.0164587075973 0)
(-0.457281719168 -0.0134237532992 0)
(-0.458704900685 -0.0106731742267 0)
(-0.459560495716 -0.00818747189908 0)
(-0.459970911669 -0.00597773803708 0)
(-0.460029823119 -0.00401840677596 0)
(-0.459809647412 -0.00228958014729 0)
(-0.459365193193 -0.000764455586769 0)
(-0.458738224311 0.000581032353573 0)
(-0.457960545748 0.0017704902159 0)
(-0.457056573537 0.00282503568246 0)
(-0.456045167871 0.00376383648923 0)
(-0.454941015444 0.00460384629598 0)
(-0.453755629581 0.00536008407349 0)
(-0.45249808765 0.0060457592926 0)
(-0.451175571052 0.00667249908075 0)
(-0.449793764754 0.0072505330258 0)
(-0.448357153782 0.0077888834792 0)
(-0.446869244505 0.00829553217994 0)
(-0.44533272979 0.00877757279215 0)
(-0.443749611467 0.00924134436073 0)
(-0.442121289321 0.00969254843503 0)
(-0.440448622641 0.0101363497319 0)
(-0.438731968498 0.0105774615296 0)
(-0.436971198245 0.0110202161177 0)
(-0.435165694423 0.0114686204235 0)
(-0.433314324504 0.0119263961884 0)
(-0.431415396683 0.0123970030402 0)
(-0.429466580656 0.0128836417089 0)
(-0.427464821476 0.0133892318006 0)
(-0.425406174989 0.0139163575424 0)
(-0.423285708195 0.0144671653528 0)
(-0.421097148172 0.0150432029371 0)
(-0.418832969095 0.0156451501899 0)
(-0.416483469205 0.0162724530436 0)
(-0.414038062636 0.0169226848361 0)
(-0.411482074071 0.0175908626106 0)
(-0.408803892794 0.0182679900053 0)
(-0.405981370354 0.0189403981524 0)
(-0.403015198489 0.0195864206102 0)
(-0.399866076449 0.0201790064098 0)
(-0.396602058754 0.0206768111851 0)
(-0.393103710044 0.0210457932161 0)
(-0.389700717937 0.0212273368073 0)
(-0.385739692786 0.0212573451883 0)
(-0.424911438171 -0.0266687189435 0)
(-0.432041487522 -0.0258559698999 0)
(-0.438135640399 -0.0233640213261 0)
(-0.443244582025 -0.0208610753041 0)
(-0.447293536856 -0.0179981321746 0)
(-0.450404177032 -0.0152365596292 0)
(-0.452692152041 -0.0125561782927 0)
(-0.454298320084 -0.010085151533 0)
(-0.455342970467 -0.0078231050795 0)
(-0.455932343361 -0.00579052438809 0)
(-0.456151884163 -0.00397349593438 0)
(-0.456070658561 -0.0023599415687 0)
(-0.455743033501 -0.000929748179045 0)
(-0.455211962912 0.000336338604864 0)
(-0.454511262025 0.00145819784445 0)
(-0.453667704891 0.00245420053413 0)
(-0.452702573576 0.00334143381887 0)
(-0.451632887122 0.00413528936998 0)
(-0.450472319097 0.00484959437167 0)
(-0.449231898121 0.00549664268608 0)
(-0.447920535513 0.00608734672462 0)
(-0.446545427036 0.00663136959167 0)
(-0.445112358908 0.00713727550024 0)
(-0.443625942234 0.00761266707288 0)
(-0.44208979262 0.00806431544184 0)
(-0.440506667285 0.00849827629596 0)
(-0.438878568382 0.00891999292838 0)
(-0.43720681853 0.0093343850366 0)
(-0.435492112974 0.00974592355743 0)
(-0.433734550426 0.0101586911819 0)
(-0.43193364547 0.0105764280827 0)
(-0.430088320149 0.0110025617808 0)
(-0.428196880929 0.0114402190172 0)
(-0.426256966751 0.0118922167097 0)
(-0.424265496627 0.0123610260099 0)
(-0.422218553828 0.012848703742 0)
(-0.420111343069 0.0133567751805 0)
(-0.417937938021 0.0138860628562 0)
(-0.415691453997 0.0144364142608 0)
(-0.413363349522 0.0150063576254 0)
(-0.410944760631 0.0155925230652 0)
(-0.408423885263 0.0161890982144 0)
(-0.405792588382 0.0167866493702 0)
(-0.403034681539 0.0173718528166 0)
(-0.400155388903 0.017925035475 0)
(-0.397125953642 0.0184230719373 0)
(-0.39401216876 0.0188328188127 0)
(-0.390712652463 0.0191289600456 0)
(-0.387520073536 0.0192698329211 0)
(-0.383839179726 0.0192860725099 0)
(-0.422119477754 -0.0234078807054 0)
(-0.428440332737 -0.0228342110503 0)
(-0.434001962172 -0.0208429784405 0)
(-0.438804140542 -0.0187884586144 0)
(-0.442740663206 -0.016380461734 0)
(-0.445870895078 -0.0140038000685 0)
(-0.44826368687 -0.0116562349992 0)
(-0.450020703526 -0.00945711232534 0)
(-0.451236081799 -0.00741877026367 0)
(-0.451998755004 -0.00556774205448 0)
(-0.452384027763 -0.00389927768191 0)
(-0.452455511031 -0.00240774034832 0)
(-0.452265218728 -0.00107889264287 0)
(-0.451855645092 0.00010212464662 0)
(-0.451261250029 0.00115164781861 0)
(-0.450510043181 0.00208535086012 0)
(-0.449624808694 0.00291821196379 0)
(-0.44862413765 0.00366399199755 0)
(-0.447523228719 0.00433523686203 0)
(-0.446334524128 0.0049432274434 0)
(-0.445068204524 0.00549806265117 0)
(-0.443732578045 0.00600874275501 0)
(-0.442334385564 0.00648328169945 0)
(-0.440879041539 0.00692881600024 0)
(-0.439370824098 0.00735171276863 0)
(-0.437813024947 0.00775766855141 0)
(-0.436208066777 0.00815179850468 0)
(-0.434557593739 0.00853871368922 0)
(-0.432862539319 0.00892258595783 0)
(-0.431123173895 0.00930719949382 0)
(-0.429339135228 0.00969598804841 0)
(-0.427509440407 0.0100920564627 0)
(-0.425632485969 0.0104981840614 0)
(-0.423706024337 0.0109168069933 0)
(-0.421727144506 0.0113499736396 0)
(-0.419692202019 0.0117992683727 0)
(-0.417596825681 0.012265689076 0)
(-0.415435749839 0.012749477128 0)
(-0.413203049672 0.0132498590044 0)
(-0.410891621955 0.0137647386051 0)
(-0.408494510217 0.0142902013208 0)
(-0.406002736401 0.0148201009794 0)
(-0.403411327686 0.0153451584174 0)
(-0.400709016856 0.0158529494814 0)
(-0.397904358852 0.0163261796894 0)
(-0.394976043581 0.0167454431232 0)
(-0.391986880671 0.0170845304001 0)
(-0.388847242319 0.0173244788115 0)
(-0.38582110456 0.0174356630933 0)
(-0.382355029504 0.017443320911 0)
(-0.419660061321 -0.0205258107595 0)
(-0.425319951413 -0.0201122565759 0)
(-0.430416181795 -0.0185057755537 0)
(-0.434925871437 -0.0168166991553 0)
(-0.438730567743 -0.0147961537029 0)
(-0.44184741225 -0.0127621876023 0)
(-0.444310248184 -0.0107211495087 0)
(-0.446188223042 -0.00878081606928 0)
(-0.447551960403 -0.0069610475956 0)
(-0.448473443813 -0.00529159038759 0)
(-0.449017078353 -0.00377447709164 0)
(-0.449239802031 -0.00240911102069 0)
(-0.449190002229 -0.00118620589374 0)
(-0.448908537846 -9.47731862968e-05 0)
(-0.448429506984 0.000878271841243 0)
(-0.447781319334 0.00174604279499 0)
(-0.446987582191 0.00252145311931 0)
(-0.446067911444 0.0032166221766 0)
(-0.445038592221 0.00384277282285 0)
(-0.443913129766 0.0044101152573 0)
(-0.442702695283 0.0049278702546 0)
(-0.44141648971 0.00540430934637 0)
(-0.440062038836 0.00584683233378 0)
(-0.438645433683 0.00626204979854 0)
(-0.437171526125 0.00665587024612 0)
(-0.435644088037 0.00703358251807 0)
(-0.43406594024 0.00739993166466 0)
(-0.432439056006 0.0077591852707 0)
(-0.430764643103 0.00811518900506 0)
(-0.42904320667 0.00847140996353 0)
(-0.427274596318 0.00883096646944 0)
(-0.425458036728 0.00919664268197 0)
(-0.423592148722 0.00957088549358 0)
(-0.421674951172 0.00995578094113 0)
(-0.419703870723 0.0103530047334 0)
(-0.417675711514 0.0107637432637 0)
(-0.41558670284 0.0111885727776 0)
(-0.413432401155 0.0116272984877 0)
(-0.411207969174 0.0120787206806 0)
(-0.408907793726 0.0125403707994 0)
(-0.406526771369 0.0130081055845 0)
(-0.404058464994 0.0134758090121 0)
(-0.401500585431 0.0139347369536 0)
(-0.398845735748 0.0143736609983 0)
(-0.396104794018 0.0147777138959 0)
(-0.393261545956 0.0151308207826 0)
(-0.390375658475 0.0154124033482 0)
(-0.387365161149 0.0156081522746 0)
(-0.384471940523 0.0156968723156 0)
(-0.381173507458 0.0156991111701 0)
(-0.417592902403 -0.0179411400733 0)
(-0.42272270182 -0.0176357105418 0)
(-0.427424502611 -0.0163286799804 0)
(-0.43166923715 -0.0149379201148 0)
(-0.435337709763 -0.0132462374972 0)
(-0.438419971563 -0.0115149187571 0)
(-0.440924766958 -0.00975320550195 0)
(-0.442895397532 -0.00805607377104 0)
(-0.444382333907 -0.00644697289116 0)
(-0.44544195623 -0.00495658681143 0)
(-0.446127894191 -0.00359159287785 0)
(-0.446489929452 -0.00235509183417 0)
(-0.446572108853 -0.0012417851113 0)
(-0.446412906263 -0.000243964070786 0)
(-0.446045373607 0.000648572465396 0)
(-0.445497735156 0.00144658353325 0)
(-0.444793941677 0.00216102285556 0)
(-0.443954250852 0.00280240816958 0)
(-0.442995734959 0.00338063987586 0)
(-0.44193273278 0.0039048351688 0)
(-0.440777234198 0.00438330221778 0)
(-0.439539208384 0.00482354407798 0)
(-0.438226880516 0.0052323057469 0)
(-0.436846965109 0.00561563303674 0)
(-0.435404861966 0.00597894054583 0)
(-0.433904820397 0.00632707873718 0)
(-0.432350076286 0.00666439724674 0)
(-0.430742965762 0.00699480081578 0)
(-0.429085018898 0.0073217960571 0)
(-0.427377035611 0.00764852725321 0)
(-0.425619147206 0.00797779958274 0)
(-0.4238108634 0.00831208800151 0)
(-0.421951112018 0.00865352931097 0)
(-0.420038263557 0.00900389491307 0)
(-0.418070166479 0.0093645395866 0)
(-0.416044151381 0.00973632373408 0)
(-0.413957112685 0.0101194993504 0)
(-0.411805467047 0.0105135637039 0)
(-0.40958546206 0.0109170557324 0)
(-0.407292894931 0.0113273378171 0)
(-0.404924342204 0.011740276668 0)
(-0.402475542687 0.012150040384 0)