/*--------------------------------*- C++ -*----------------------------------*\
| =========                 |                                                 |
| \\      /  F ield         | OpenFOAM: The Open Source CFD Toolbox           |
|  \\    /   O peration     | Version:  2.4.0                                 |
|   \\  /    A nd           | Web:      www.OpenFOAM.org                      |
|    \\/     M anipulation  |                                                 |
\*---------------------------------------------------------------------------*/
FoamFile
{
    version     2.0;
    format      ascii;
    class       volVectorField;
    location    "400";
    object      U;
}
// * * * * * * * * * * * * * * * * * * * * * * * * * * * * * * * * * * * * * //

dimensions      [0 1 -1 0 0 0 0];

internalField   nonuniform List<vector> 
2500
(
(2.34370660566e-05 4.47985379899e-07 0)
(2.29699966518e-05 6.45848899822e-08 0)
(2.30021804686e-05 -5.38626856059e-08 0)
(2.31482998929e-05 -6.66469620076e-08 0)
(2.33149453021e-05 -5.62131228887e-08 0)
(2.34637638525e-05 -4.41891979584e-08 0)
(2.35912778944e-05 -3.49562861343e-08 0)
(2.36996052606e-05 -2.84081228281e-08 0)
(2.37921844308e-05 -2.36652052696e-08 0)
(2.38717617883e-05 -2.00490527234e-08 0)
(2.39404416703e-05 -1.7149220257e-08 0)
(2.39998276061e-05 -1.47371975981e-08 0)
(2.4051190131e-05 -1.26837977565e-08 0)
(2.40955665368e-05 -1.09107347758e-08 0)
(2.41338224602e-05 -9.36554872385e-09 0)
(2.41666887425e-05 -8.00959771452e-09 0)
(2.41947854627e-05 -6.81230705347e-09 0)
(2.42186386358e-05 -5.74829688227e-09 0)
(2.42386925298e-05 -4.79580208931e-09 0)
(2.42553190418e-05 -3.93570032422e-09 0)
(2.42688249272e-05 -3.15084209847e-09 0)
(2.42794573521e-05 -2.42555111094e-09 0)
(2.42874080632e-05 -1.74522564682e-09 0)
(2.4292816383e-05 -1.09600470089e-09 0)
(2.42957711562e-05 -4.644755179e-10 0)
(2.42963117341e-05 1.62598047711e-10 0)
(2.42944280316e-05 7.98535800048e-10 0)
(2.42900596577e-05 1.45700559915e-09 0)
(2.42830940815e-05 2.15230294466e-09 0)
(2.42733637512e-05 2.89965961993e-09 0)
(2.42606420404e-05 3.71559738732e-09 0)
(2.42446378342e-05 4.61834834568e-09 0)
(2.42249884899e-05 5.62837102059e-09 0)
(2.4201250806e-05 6.7690076889e-09 0)
(2.41728894707e-05 8.06735686117e-09 0)
(2.41392622208e-05 9.55550840755e-09 0)
(2.40996004843e-05 1.127245086e-08 0)
(2.40529834283e-05 1.3267369616e-08 0)
(2.39983014354e-05 1.56060146506e-08 0)
(2.39342015579e-05 1.83839007882e-08 0)
(2.38589990932e-05 2.17544408746e-08 0)
(2.37705316355e-05 2.59864095564e-08 0)
(2.36659044394e-05 3.15725144605e-08 0)
(2.35411587746e-05 3.93873506522e-08 0)
(2.33908380167e-05 5.079500751e-08 0)
(2.32090842843e-05 6.70691213317e-08 0)
(2.29926071636e-05 8.63281228805e-08 0)
(2.27666574454e-05 9.14806131769e-08 0)
(2.26087663066e-05 5.01399915816e-09 0)
(2.28782370368e-05 -3.35009092968e-07 0)
(8.41316689868e-05 1.24496102564e-06 0)
(8.36410969284e-05 2.4695751036e-07 0)
(8.36805212265e-05 -2.15816106035e-07 0)
(8.39480324807e-05 -3.38466754863e-07 0)
(8.43154696066e-05 -3.4252604569e-07 0)
(8.4697219723e-05 -3.11604678629e-07 0)
(8.50600953406e-05 -2.74437771621e-07 0)
(8.53907077692e-05 -2.39477527817e-07 0)
(8.56861199884e-05 -2.08529594602e-07 0)
(8.59473830026e-05 -1.81504058889e-07 0)
(8.61771149077e-05 -1.57906436072e-07 0)
(8.63783344567e-05 -1.37240202203e-07 0)
(8.65540149959e-05 -1.19081807084e-07 0)
(8.67069065341e-05 -1.03077138898e-07 0)
(8.68394811362e-05 -8.89260792871e-08 0)
(8.69539258851e-05 -7.63698609438e-08 0)
(8.70521549871e-05 -6.51820884012e-08 0)
(8.71358279967e-05 -5.51622403179e-08 0)
(8.72063688792e-05 -4.61306554952e-08 0)
(8.72649836197e-05 -3.79244516895e-08 0)
(8.73126754814e-05 -3.03940810205e-08 0)
(8.73502576079e-05 -2.34003499514e-08 0)
(8.73783629165e-05 -1.68117832769e-08 0)
(8.73974513306e-05 -1.05022366678e-08 0)
(8.7407814407e-05 -4.34867338782e-09 0)
(8.74095773939e-05 1.77097189881e-09 0)
(8.74026987077e-05 7.97991589038e-09 0)
(8.73869667569e-05 1.44047097903e-08 0)
(8.73619939757e-05 2.11775612897e-08 0)
(8.73272078478e-05 2.84388863944e-08 0)
(8.72818386097e-05 3.6340193453e-08 0)
(8.72249032208e-05 4.50474332181e-08 0)
(8.71551850649e-05 5.47449776569e-08 0)
(8.70712087163e-05 6.56404479406e-08 0)
(8.6971208988e-05 7.79706965965e-08 0)
(8.68530933874e-05 9.20093906279e-08 0)
(8.67143971851e-05 1.08076935447e-07 0)
(8.65522308535e-05 1.26554033642e-07 0)
(8.63632212709e-05 1.47901236501e-07 0)
(8.6143453479e-05 1.72688449079e-07 0)
(8.5888431731e-05 2.01639478546e-07 0)
(8.55931191687e-05 2.35690240397e-07 0)
(8.52521810937e-05 2.76022183654e-07 0)
(8.48608469602e-05 3.23879482216e-07 0)
(8.44169613101e-05 3.79498157868e-07 0)
(8.3926958742e-05 4.38067096081e-07 0)
(8.34156190616e-05 4.76845551932e-07 0)
(8.29590259624e-05 4.19897250617e-07 0)
(8.26854749165e-05 4.80839326884e-08 0)
(8.28960903386e-05 -8.56580371037e-07 0)
(0.000143421164842 1.87156206665e-06 0)
(0.000143001403779 4.46314353621e-07 0)
(0.000142980852463 -3.74688410896e-07 0)
(0.000143214312605 -6.91261230747e-07 0)
(0.000143605252963 -7.7313307657e-07 0)
(0.000144059968701 -7.54356609669e-07 0)
(0.000144525950594 -6.97297326536e-07 0)
(0.000144973759162 -6.28714025677e-07 0)
(0.000145389580408 -5.59759826892e-07 0)
(0.000145767926985 -4.94787563004e-07 0)
(0.000146107811631 -4.35275338455e-07 0)
(0.000146410474413 -3.81487490868e-07 0)
(0.000146678193351 -3.33184596282e-07 0)
(0.000146913644977 -2.89927554012e-07 0)
(0.000147119571326 -2.51210716433e-07 0)
(0.000147298606373 -2.16520626569e-07 0)
(0.000147453188177 -1.853613092e-07 0)
(0.000147585516612 -1.57263868092e-07 0)
(0.000147697535522 -1.31788509186e-07 0)
(0.00014779092764 -1.08522868996e-07 0)
(0.000147867115838 -8.70785838949e-08 0)
(0.000147927267004 -6.70870627108e-08 0)
(0.000147972296418 -4.81949314274e-08 0)
(0.000148002871337 -3.00593610744e-08 0)
(0.000148019413048 -1.23433397717e-08 0)
(0.000148022096848 5.289125561e-09 0)
(0.000148010849642 2.31779388178e-08 0)
(0.000147985344904 4.16720670848e-08 0)
(0.000147944994792 6.11350232164e-08 0)
(0.000147888939263 8.19508155601e-08 0)
(0.000147816032091 1.04530503058e-07 0)
(0.000147724823754 1.29319515891e-07 0)
(0.000147613541353 1.56805890825e-07 0)
(0.000147480066056 1.87529536802e-07 0)
(0.000147321909203 2.220925417e-07 0)
(0.000147136189437 2.61170272964e-07 0)
(0.000146919615548 3.05522460399e-07 0)
(0.000146668484266 3.56002146807e-07 0)
(0.000146378711008 4.13557314266e-07 0)
(0.000146045929573 4.79212428772e-07 0)
(0.000145665730409 5.53997630136e-07 0)
(0.000145234181568 6.38743696549e-07 0)
(0.000144748887083 7.33530455334e-07 0)
(0.000144211145419 8.36268195652e-07 0)
(0.000143629839783 9.39091481622e-07 0)
(0.000143029125868 1.01976002066e-06 0)
(0.000142457722123 1.02105764665e-06 0)
(0.000142009094799 8.10953926734e-07 0)
(0.000141792461552 1.0916428799e-07 0)
(0.000141961329454 -1.22247086374e-06 0)
(0.000200967445623 2.35628563042e-06 0)
(0.000200623365775 6.57705923372e-07 0)
(0.000200548313303 -4.52403229125e-07 0)
(0.000200696274445 -9.81071386711e-07 0)
(0.000201017961057 -1.18447459126e-06 0)
(0.000201438966419 -1.21824699029e-06 0)
(0.000201905091629 -1.16981279572e-06 0)
(0.000202378850958 -1.08459997021e-06 0)
(0.000202837636374 -9.8585450269e-07 0)
(0.000203268724887 -8.85170488061e-07 0)
(0.000203665812507 -7.88169137189e-07 0)
(0.000204026486147 -6.97390206316e-07 0)
(0.00020435062707 -6.1378019655e-07 0)
(0.000204639406118 -5.37457914968e-07 0)
(0.000204894669217 -4.68115275024e-07 0)
(0.000205118561446 -4.05229920277e-07 0)
(0.000205313297923 -3.48179252151e-07 0)
(0.000205481024083 -2.96301463902e-07 0)
(0.000205623730734 -2.48927465128e-07 0)
(0.000205743202658 -2.05396497567e-07 0)
(0.00020584098773 -1.65062460551e-07 0)
(0.000205918378424 -1.27294875104e-07 0)
(0.000205976400547 -9.14766964216e-08 0)
(0.000206015805932 -5.70002373911e-08 0)
(0.000206037066964 -2.32619023321e-08 0)
(0.000206040371556 1.03438782845e-08 0)
(0.000206025617734 4.44313150586e-08 0)
(0.000205992407307 7.96304350465e-08 0)
(0.000205940038423 1.16594717071e-07 0)
(0.000205867497094 1.56009159049e-07 0)
(0.000205773448099 1.98598703053e-07 0)
(0.000205656226153 2.45136846011e-07 0)
(0.000205513828904 2.96454045765e-07 0)
(0.000205343914433 3.53445134042e-07 0)
(0.000205143807684 4.17074179113e-07 0)
(0.000204910523187 4.883738295e-07 0)
(0.000204640816343 5.6843347994e-07 0)
(0.000204331283891 6.58365441671e-07 0)
(0.000203978548279 7.59228060957e-07 0)
(0.000203579585163 8.71864131319e-07 0)
(0.000203132292225 9.96570031833e-07 0)
(0.000202636466228 1.1324233665e-06 0)
(0.000202095429356 1.27590880022e-06 0)
(0.000201518711628 1.41812887875e-06 0)
(0.000200925978396 1.53910304438e-06 0)
(0.000200352889911 1.59672433353e-06 0)
(0.000199854934708 1.50520064068e-06 0)
(0.000199512132327 1.10394905561e-06 0)
(0.000199388609807 1.17882570999e-07 0)
(0.000199534340403 -1.49789158756e-06 0)
(0.000256422388844 2.71763884213e-06 0)
(0.000256146511298 8.62662403391e-07 0)
(0.000256036687796 -4.57984779747e-07 0)
(0.000256101384346 -1.18049558372e-06 0)
(0.000256327771166 -1.52226374025e-06 0)
(0.000256667689169 -1.63751833526e-06 0)
(0.000257076121508 -1.62582660094e-06 0)
(0.000257516016735 -1.54639704185e-06 0)
(0.000257961036931 -1.43374179703e-06 0)
(0.000258393654957 -1.3075314135e-06 0)
(0.000258803038585 -1.17879740306e-06 0)
(0.000259183025996 -1.05355103998e-06 0)
(0.000259530596092 -9.34892552809e-07 0)
(0.000259844763743 -8.24227356806e-07 0)
(0.000260125818514 -7.21972250093e-07 0)
(0.000260374807733 -6.27967992098e-07 0)
(0.000260593189039 -5.41722401503e-07 0)
(0.00026078259745 -4.62554303897e-07 0)
(0.000260944689269 -3.89678720679e-07 0)
(0.000261081037327 -3.22256715967e-07 0)
(0.000261193060488 -2.59423680496e-07 0)
(0.000261281975953 -2.00304275952e-07 0)
(0.000261348766702 -1.44019003515e-07 0)
(0.000261394158895 -8.96854418596e-08 0)
(0.000261418605785 -3.64160359531e-08 0)
(0.000261422275862 1.66863633371e-08 0)
(0.000261405043825 7.05344315024e-08 0)
(0.000261366483622 1.26063213173e-07 0)
(0.000261305863391 1.84237406825e-07 0)
(0.000261222142721 2.46058606874e-07 0)
(0.000261113973296 3.12571861491e-07 0)
(0.000260979704885 3.84870585293e-07 0)
(0.000260817399821 4.64098272992e-07 0)
(0.000260624860902 5.51444435201e-07 0)
(0.000260399680283 6.48130398345e-07 0)
(0.000260139320984 7.55377539379e-07 0)
(0.000259841248783 8.74345136917e-07 0)
(0.000259503141726 1.0060155037e-06 0)
(0.000259123218524 1.15098694596e-06 0)
(0.000258700747933 1.30910424016e-06 0)
(0.000258236827658 1.47879970056e-06 0)
(0.000257735555904 1.65591774481e-06 0)
(0.000257205722044 1.83161099215e-06 0)
(0.000256663145262 1.98861583247e-06 0)
(0.000256133379899 2.09467435066e-06 0)
(0.000255654444498 2.09166052088e-06 0)
(0.00025527545279 1.87777132772e-06 0)
(0.000255051684231 1.28885069932e-06 0)
(0.0002550078848 8.59366535501e-08 0)
(0.000255134670361 -1.69834330542e-06 0)
(0.000309574607873 2.98048069028e-06 0)
(0.000309360635341 1.05117722231e-06 0)
(0.000309235699128 -4.09258053993e-07 0)
(0.00030923578111 -1.28975039807e-06 0)
(0.000309371248877 -1.76458932023e-06 0)
(0.000309617571423 -1.97395428959e-06 0)
(0.000309942887597 -2.01865180773e-06 0)
(0.000310315950654 -1.96515126117e-06 0)
(0.000310711241343 -1.8561373423e-06 0)
(0.000311109562459 -1.71835131471e-06 0)
(0.000311497423364 -1.56827991054e-06 0)
(0.000311865868104 -1.4158849006e-06 0)
(0.000312209339287 -1.26701147746e-06 0)
(0.000312524716218 -1.12491020845e-06 0)
(0.000312810567827 -9.9119595546e-07 0)
(0.000313066594095 -8.66451279559e-07 0)
(0.0003132932184 -7.50607323322e-07 0)
(0.000313491293664 -6.43184943975e-07 0)
(0.00031366189201 -5.4344763787e-07 0)
(0.000313806154685 -4.50498320522e-07 0)
(0.000313925185094 -3.63340038258e-07 0)
(0.000314019972551 -2.80913280859e-07 0)
(0.000314091337906 -2.02117973197e-07 0)
(0.000314139894785 -1.25825367153e-07 0)
(0.000314166022103 -5.08832658037e-08 0)
(0.000314169844949 2.38830949239e-08 0)
(0.000314151221993 9.9672850591e-08 0)
(0.000314109738521 1.77712703094e-07 0)
(0.00031404470499 2.59260347926e-07 0)
(0.000313955161847 3.45606901615e-07 0)
(0.000313839892264 4.38076784781e-07 0)
(0.00031369744565 5.38022921111e-07 0)
(0.0003135261763 6.46814048709e-07 0)
(0.00031332430367 7.65809216515e-07 0)
(0.000313090003696 8.96311679668e-07 0)
(0.00031282154466 1.03948976752e-06 0)
(0.000312517486765 1.19624464935e-06 0)
(0.000312176972134 1.36699235533e-06 0)
(0.000311800141373 1.55130658761e-06 0)
(0.000311388723305 1.74733477753e-06 0)
(0.000310946850695 1.95084384259e-06 0)
(0.00031048215044 2.15366571756e-06 0)
(0.000310007101054 2.34117524881e-06 0)
(0.000309540547588 2.48827777583e-06 0)
(0.000309108827983 2.55312360306e-06 0)
(0.000308745719797 2.4680774339e-06 0)
(0.000308487981269 2.12720565096e-06 0)
(0.000308366462553 1.37802975909e-06 0)
(0.000308378806557 2.56179615058e-08 0)
(0.000308485304155 -1.84256591842e-06 0)
(0.000360293350603 3.16144902543e-06 0)
(0.000360136047699 1.21466299702e-06 0)
(0.000360010924584 -3.2793671796e-07 0)
(0.000359966702498 -1.32651147529e-06 0)
(0.00036002669018 -1.91659742651e-06 0)
(0.000360184452792 -2.21935376634e-06 0)
(0.000360421061548 -2.32981932331e-06 0)
(0.000360713331188 -2.31606834919e-06 0)
(0.000361039488954 -2.22532071576e-06 0)
(0.000361381282008 -2.08943148473e-06 0)
(0.000361724539066 -1.92950019842e-06 0)
(0.000362058849826 -1.75924204961e-06 0)
(0.000362376945103 -1.58737750989e-06 0)
(0.000362674020993 -1.41927037386e-06 0)
(0.000362947128812 -1.25803654322e-06 0)
(0.000363194667369 -1.10528810286e-06 0)
(0.000363415979833 -9.61631281123e-07 0)
(0.000363611042235 -8.2699939053e-07 0)
(0.000363780226843 -7.00875426376e-07 0)
(0.000363924124372 -5.82440749777e-07 0)
(0.000364043411396 -4.70674072119e-07 0)
(0.00036413875208 -3.64416865401e-07 0)
(0.000364210725855 -2.62416004653e-07 0)
(0.000364259774765 -1.63350960663e-07 0)
(0.000364286165952 -6.58505976774e-08 0)
(0.000364289966139 3.14968336803e-08 0)
(0.000364271026129 1.30137801158e-07 0)
(0.000364228974366 2.31549484026e-07 0)
(0.000364163219551 3.3723560546e-07 0)
(0.000364072963277 4.48719921816e-07 0)
(0.000363957224722 5.67534712507e-07 0)
(0.000363814880726 6.95200741836e-07 0)
(0.00036364472616 8.33193672653e-07 0)
(0.000363445561511 9.82889593569e-07 0)
(0.000363216317169 1.14547865189e-06 0)
(0.000362956227083 1.32183013442e-06 0)
(0.000362665068189 1.51228358698e-06 0)
(0.000362343485898 1.71632712501e-06 0)
(0.000361993428661 1.9321036174e-06 0)
(0.000361618713542 2.15565501163e-06 0)
(0.000361225732769 2.37977070045e-06 0)
(0.000360824279101 2.59224786593e-06 0)
(0.000360428384016 2.77329583822e-06 0)
(0.000360056924367 2.89177751586e-06 0)
(0.000359733405724 2.89993099207e-06 0)
(0.000359484090996 2.726763616e-06 0)
(0.000359332449559 2.27042222989e-06 0)
(0.000359289691261 1.39695940828e-06 0)
(0.000359337205285 -4.7367577641e-08 0)
(0.000359421600387 -1.93991366062e-06 0)
(0.000408496126434 3.27339302739e-06 0)
(0.000408390529933 1.3486041393e-06 0)
(0.000408275138448 -2.30834962789e-07 0)
(0.000408203628696 -1.30965230279e-06 0)
(0.000408205419242 -1.99155973869e-06 0)
(0.000408286737323 -2.37818998047e-06 0)
(0.000408439549989 -2.555194439e-06 0)
(0.000408648931426 -2.58823841484e-06 0)
(0.000408898231391 -2.52585460927e-06 0)
(0.000409171846078 -2.40283006536e-06 0)
(0.000409456505991 -2.24358212743e-06 0)
(0.000409741621777 -2.06491796024e-06 0)
(0.000410019151525 -1.87817594505e-06 0)
(0.000410283252083 -1.69081032271e-06 0)
(0.000410529869384 -1.50753760736e-06 0)
(0.000410756343725 -1.33115268155e-06 0)
(0.000410961063165 -1.16310469637e-06 0)
(0.000411143174442 -1.00390129335e-06 0)
(0.000411302349466 -8.53391461618e-07 0)
(0.000411438600709 -7.10963031485e-07 0)
(0.00041155213751 -5.75680245809e-07 0)
(0.000411643255726 -4.46379298019e-07 0)
(0.000411712254165 -3.21734426843e-07 0)
(0.000411759372531 -2.00303496963e-07 0)
(0.000411784746818 -8.05595123344e-08 0)
(0.000411788379275 3.90871473689e-08 0)
(0.000411770121057 1.60272008162e-07 0)
(0.000411729666728 2.84662109303e-07 0)
(0.00041166656068 4.13940930627e-07 0)
(0.000411580216532 5.49789429876e-07 0)
(0.00041146995163 6.93859384032e-07 0)
(0.000411335039963 8.47734139444e-07 0)
(0.000411174788173 1.012870109e-06 0)
(0.000410988640898 1.19050967696e-06 0)
(0.000410776323422 1.38155217299e-06 0)
(0.000410538031275 1.58636369281e-06 0)
(0.000410274677687 1.80449801634e-06 0)
(0.000409988209617 2.03428871104e-06 0)
(0.000409681999598 2.27225559024e-06 0)
(0.000409361310594 2.51224634418e-06 0)
(0.000409033807891 2.74420624223e-06 0)
(0.000408710047526 2.95244145776e-06 0)
(0.000408403786688 3.11321928116e-06 0)
(0.000408131833499 3.19158840307e-06 0)
(0.00040791293597 3.13736827317e-06 0)
(0.000407765019669 2.8808364963e-06 0)
(0.000407699824864 2.32882185494e-06 0)
(0.000407714378027 1.36749153906e-06 0)
(0.000407781533521 -1.22306074243e-07 0)
(0.00040784315123 -1.99760312583e-06 0)
(0.000454128605863 3.32620450114e-06 0)
(0.000454069948272 1.45109258536e-06 0)
(0.000453970261395 -1.30123716864e-07 0)
(0.000453884302028 -1.25591318989e-06 0)
(0.000453843412554 -2.00501269015e-06 0)
(0.000453862113402 -2.4611844513e-06 0)
(0.000453940780854 -2.69940743677e-06 0)
(0.000454071874752 -2.78051803472e-06 0)
(0.000454244145886 -2.75193712646e-06 0)
(0.000454445501065 -2.64942920227e-06 0)
(0.000454664620795 -2.49934533509e-06 0)
(0.00045489173693 -2.32070026675e-06 0)
(0.000455118880251 -2.12694303542e-06 0)
(0.000455339829467 -1.92737025074e-06 0)
(0.000455549913102 -1.72821639553e-06 0)
(0.000455745755738 -1.5334747965e-06 0)
(0.000455925019655 -1.34550661506e-06 0)
(0.000456086167385 -1.1654880476e-06 0)
(0.000456228255719 -9.93736578961e-07 0)
(0.000456350763535 -8.29947943427e-07 0)
(0.000456453451661 -6.73367715655e-07 0)
(0.000456536251291 -5.22915338072e-07 0)
(0.000456599177071 -3.77273778115e-07 0)
(0.000456642261218 -2.34954623561e-07 0)
(0.000456665505651 -9.43460163426e-08 0)
(0.000456668849866 4.62508359772e-08 0)
(0.000456652153054 1.88591895109e-07 0)
(0.000456615189809 3.34463182508e-07 0)
(0.000456557659568 4.85652408412e-07 0)
(0.000456479210821 6.43915178192e-07 0)
(0.000456379481995 8.109309409e-07 0)
(0.00045625816186 9.88242657174e-07 0)
(0.000456115073288 1.17717230572e-06 0)
(0.000455950285064 1.37870163473e-06 0)
(0.000455764257139 1.59330371319e-06 0)
(0.00045555802481 1.82070548227e-06 0)
(0.000455333426163 2.05955427446e-06 0)
(0.000455093373621 2.30695183838e-06 0)
(0.000454842162684 2.55780772201e-06 0)
(0.000454585795868 2.80395094719e-06 0)
(0.000454332273076 3.03292697022e-06 0)
(0.000454091755111 3.22640445734e-06 0)
(0.000453876439379 3.35813042256e-06 0)
(0.000453699888595 3.39145139734e-06 0)
(0.00045357545781 3.27652580839e-06 0)
(0.000453513303287 2.94785640141e-06 0)
(0.00045351583381 2.32289711674e-06 0)
(0.000453570553354 1.30676766693e-06 0)
(0.00045364672801 -1.92145587414e-07 0)
(0.000453685946001 -2.0210664478e-06 0)
(0.000497153803937 3.32784467633e-06 0)
(0.000497137566723 1.52211356906e-06 0)
(0.000497056777619 -3.38590103386e-08 0)
(0.000496965495439 -1.17845630702e-06 0)
(0.000496894596978 -1.97127368603e-06 0)
(0.000496863707312 -2.48066326795e-06 0)
(0.000496879317496 -2.77103552692e-06 0)
(0.000496939993365 -2.89720855576e-06 0)
(0.000497039524083 -2.90388447712e-06 0)
(0.000497169566548 -2.82626955008e-06 0)
(0.000497321311575 -2.69139797771e-06 0)
(0.000497486483814 -2.51957278714e-06 0)
(0.000497657842276 -2.32573138642e-06 0)
(0.000497829362215 -2.12062503435e-06 0)
(0.000497996225156 -1.91178941991e-06 0)
(0.000498154706417 -1.7043168592e-06 0)
(0.000498302016931 -1.50145742993e-06 0)
(0.000498436133622 -1.30507988595e-06 0)
(0.000498555637372 -1.11602141565e-06 0)
(0.000498659568013 -9.34351172575e-07 0)
(0.000498747300081 -7.59567939125e-07 0)
(0.000498818439882 -5.9074809793e-07 0)
(0.000498872742833 -4.2665657105e-07 0)
(0.000498910049416 -2.65830632545e-07 0)
(0.000498930238053 -1.0664440885e-07 0)
(0.00049893319348 5.26396041452e-08 0)
(0.000498918789653 2.13826662886e-07 0)
(0.00049888688679 3.78748732765e-07 0)
(0.00049883734277 5.49221618968e-07 0)
(0.000498770039739 7.26995342546e-07 0)
(0.000498684927421 9.1369215517e-07 0)
(0.000498582085209 1.11072540884e-06 0)
(0.000498461805581 1.31919074993e-06 0)
(0.00049832470157 1.53971864576e-06 0)
(0.000498171840689 1.77227394297e-06 0)
(0.00049800490642 2.01588387074e-06 0)
(0.000497826385475 2.26827059779e-06 0)
(0.000497639773446 2.52535834875e-06 0)
(0.000497449781596 2.78061888114e-06 0)
(0.000497262511339 3.02421471733e-06 0)
(0.000497085537976 3.24190009774e-06 0)
(0.000496927808081 3.41365340967e-06 0)
(0.000496799209495 3.51204782053e-06 0)
(0.000496709605991 3.50045552067e-06 0)
(0.000496667127271 3.33128644577e-06 0)
(0.000496675337858 2.94485534244e-06 0)
(0.000496729698995 2.2695229957e-06 0)
(0.000496811709986 1.2270508475e-06 0)
(0.000496889989742 -2.52852658223e-07 0)
(0.00049690789386 -2.01480467285e-06 0)
(0.000537545764369 3.28485310933e-06 0)
(0.000537567735251 1.56276812941e-06 0)
(0.000537507190981 5.29080492717e-08 0)
(0.000537416801961 -1.08713005735e-06 0)
(0.000537325727955 -1.90244185232e-06 0)
(0.000537256504516 -2.44852510511e-06 0)
(0.000537219862436 -2.78004268724e-06 0)
(0.000537219161519 -2.94543962683e-06 0)
(0.000537252564434 -2.9857732717e-06 0)
(0.000537315324857 -2.93460375715e-06 0)
(0.000537401332863 -2.81863473368e-06 0)
(0.000537504180531 -2.65862188105e-06 0)
(0.000537617800557 -2.47035738355e-06 0)
(0.000537736807339 -2.26559847113e-06 0)
(0.000537856634776 -2.05288500504e-06 0)
(0.000537973547629 -1.83822722551e-06 0)
(0.000538084580321 -1.62566735909e-06 0)
(0.000538187439751 -1.41772876762e-06 0)
(0.000538280395373 -1.21576997308e-06 0)
(0.000538362170548 -1.02026089763e-06 0)
(0.000538431842979 -8.30997011114e-07 0)
(0.000538488758128 -6.47264870568e-07 0)
(0.000538532457174 -4.67970305543e-07 0)
(0.000538562619778 -2.91738550346e-07 0)
(0.000538579021337 -1.16994033611e-07 0)
(0.000538581504232 5.79736534326e-08 0)
(0.000538569962711 2.34951904608e-07 0)
(0.000538544341295 4.15750097035e-07 0)
(0.000538504646952 6.02142275855e-07 0)
(0.000538450975665 7.95802092706e-07 0)
(0.000538383554329 9.98223938678e-07 0)
(0.000538302799131 1.21062316135e-06 0)
(0.000538209391541 1.43380676394e-06 0)
(0.000538104372574 1.66800398762e-06 0)
(0.000537989254886 1.91264366511e-06 0)
(0.000537866149992 2.16606226735e-06 0)
(0.000537737903998 2.42512337535e-06 0)
(0.000537608228768 2.68472641891e-06 0)
(0.000537481805469 2.93718104804e-06 0)
(0.000537364322651 3.17142552834e-06 0)
(0.000537262390975 3.37207621451e-06 0)
(0.000537183249436 3.51831712054e-06 0)
(0.000537134153669 3.58267741826e-06 0)
(0.000537121294488 3.52982561238e-06 0)
(0.000537148157251 3.31559318385e-06 0)
(0.000537213034681 2.88672777443e-06 0)
(0.000537306464444 2.1818716666e-06 0)
(0.000537406415984 1.13684504128e-06 0)
(0.000537482483411 -3.02359147266e-07 0)
(0.000537480550363 -1.98260025494e-06 0)
(0.000575285828702 3.20271841208e-06 0)
(0.000575342121068 1.57479372625e-06 0)
(0.000575301982645 1.27257826788e-07 0)
(0.000575216543666 -9.89025413584e-07 0)
(0.000575112682715 -1.80821986285e-06 0)
(0.000575014399634 -2.3752980633e-06 0)
(0.000574935235078 -2.73629087445e-06 0)
(0.000574882174523 -2.93342457635e-06 0)
(0.000574857001597 -3.00368858147e-06 0)
(0.000574858202477 -2.97830240704e-06 0)
(0.000574882306851 -2.88288476131e-06 0)
(0.0005749249171 -2.73794996383e-06 0)
(0.000574981396123 -2.55956616633e-06 0)
(0.000575047300758 -2.3600464984e-06 0)
(0.000575118623016 -2.14860494887e-06 0)
(0.00057519189931 -1.93194124935e-06 0)
(0.000575264233564 -1.71474223137e-06 0)
(0.000575333268511 -1.5000999582e-06 0)
(0.000575397129117 -1.28985380676e-06 0)
(0.00057545435421 -1.08486658305e-06 0)
(0.000575503826595 -8.85245433156e-07 0)
(0.000575544707905 -6.90517835895e-07 0)
(0.000575576381774 -4.99771972356e-07 0)
(0.000575598407235 -3.11769661333e-07 0)
(0.000575610483256 -1.25039033165e-07 0)
(0.000575612424808 6.20467169259e-08 0)
(0.000575604150661 2.5119873517e-07 0)
(0.000575585683091 4.44144630975e-07 0)
(0.000575557159728 6.42557913112e-07 0)
(0.000575518857909 8.47979101443e-07 0)
(0.000575471231893 1.06172232878e-06 0)
(0.000575414963147 1.2847604158e-06 0)
(0.000575351023479 1.51758024996e-06 0)
(0.000575280749877 1.75999887467e-06 0)
(0.000575205928217 2.01092907646e-06 0)
(0.000575128880326 2.26808162266e-06 0)
(0.0005750525446 2.52759004859e-06 0)
(0.00057498053409 2.7835436831e-06 0)
(0.000574917147134 3.02741660216e-06 0)
(0.000574867293669 3.24738633412e-06 0)
(0.000574836286195 3.42754887069e-06 0)
(0.000574829426698 3.54706066063e-06 0)
(0.00057485131337 3.57927484619e-06 0)
(0.000574904764083 3.49100464666e-06 0)
(0.00057498935542 3.24210503988e-06 0)
(0.000575099333937 2.78576580366e-06 0)
(0.000575221894487 2.06987269909e-06 0)
(0.000575333135376 1.04187229564e-06 0)
(0.000575404429581 -3.39871030831e-07 0)
(0.000575384311694 -1.92769598522e-06 0)
(0.000610360316163 3.08612833014e-06 0)
(0.000610447360046 1.56024911124e-06 0)
(0.00061042704487 1.87725361958e-07 0)
(0.000610349056745 -8.89100359259e-07 0)
(0.00061023782725 -1.6961546136e-06 0)
(0.000610117903436 -2.26987387269e-06 0)
(0.000610004594412 -2.64882630562e-06 0)
(0.000609907547672 -2.86944930162e-06 0)
(0.000609831446418 -2.96458076988e-06 0)
(0.000609777559026 -2.96271439257e-06 0)
(0.000609744848652 -2.88786637733e-06 0)
(0.000609730908439 -2.75977297814e-06 0)
(0.000609732637418 -2.59428813088e-06 0)
(0.000609746713115 -2.40386789576e-06 0)
(0.000609769895782 -2.19807286336e-06 0)
(0.00060979920777 -1.98404566739e-06 0)
(0.000609832023815 -1.76694154402e-06 0)
(0.000609866101622 -1.55030299463e-06 0)
(0.000609899574891 -1.33637786434e-06 0)
(0.00060993092492 -1.1263847423e-06 0)
(0.000609958942016 -9.20731873119e-07 0)
(0.000609982684293 -7.19196634318e-07 0)
(0.000610001438795 -5.21072687671e-07 0)
(0.000610014688016 -3.25291588807e-07 0)
(0.000610022083735 -1.30525172322e-07 0)
(0.000610023429278 6.47254144824e-08 0)
(0.000610018670879 2.6204849238e-07 0)
(0.000610007898549 4.63043084612e-07 0)
(0.000609991356685 6.69237235763e-07 0)
(0.000609969464499 8.81997838559e-07 0)
(0.000609942846076 1.10242597037e-06 0)
(0.000609912369475 1.33123115368e-06 0)
(0.000609879193489 1.56857718093e-06 0)
(0.000609844819511 1.81389131581e-06 0)
(0.000609811144007 2.06562790583e-06 0)
(0.000609780504289 2.32097699113e-06 0)
(0.000609755706268 2.57550879148e-06 0)
(0.000609740017345 2.8227466925e-06 0)
(0.000609737100572 3.05366554152e-06 0)
(0.000609750857539 3.25612022619e-06 0)
(0.000609785138837 3.41422333457e-06 0)
(0.000609843270973 3.50771320231e-06 0)
(0.000609927352976 3.51138413144e-06 0)
(0.000610037256833 3.39469959385e-06 0)
(0.000610169390081 3.12174467086e-06 0)
(0.000610314989201 2.65181314614e-06 0)
(0.0006104590776 1.94087597505e-06 0)
(0.000610576950229 9.45891967648e-07 0)
(0.000610642076238 -3.65376086187e-07 0)
(0.0006106054693 -1.85289918627e-06 0)
(0.000642759037522 2.93915311717e-06 0)
(0.000642873553601 1.52132930401e-06 0)
(0.00064287202282 2.33826664893e-07 0)
(0.000642802880921 -7.90709524189e-07 0)
(0.000642688167121 -1.57198709154e-06 0)
(0.000642552418815 -2.13954490645e-06 0)
(0.00064241198132 -2.52558744278e-06 0)
(0.000642278406781 -2.76131509464e-06 0)
(0.000642158643387 -2.87554108601e-06 0)
(0.000642056282219 -2.89387241779e-06 0)
(0.000641972441864 -2.83840018722e-06 0)
(0.000641906583989 -2.72769366996e-06 0)
(0.000641857140057 -2.57700158354e-06 0)
(0.000641821984957 -2.39856745991e-06 0)
(0.000641798771447 -2.20199670756e-06 0)
(0.000641785154299 -1.99463199606e-06 0)
(0.000641778929864 -1.78191063091e-06 0)
(0.000641778114349 -1.56768946993e-06 0)
(0.000641780979727 -1.35453123006e-06 0)
(0.000641786062033 -1.14395133358e-06 0)
(0.000641792153081 -9.36627650143e-07 0)
(0.000641798283555 -7.32577248986e-07 0)
(0.000641803703092 -5.31305129289e-07 0)
(0.000641807861156 -3.31930201835e-07 0)
(0.000641810391277 -1.33293815816e-07 0)
(0.000641811100294 6.59439722251e-08 0)
(0.000641809963624 2.67215289434e-07 0)
(0.000641807127144 4.71957440749e-07 0)
(0.000641802915867 6.81522898162e-07 0)
(0.000641797849266 8.97081000362e-07 0)
(0.000641792662617 1.11950580344e-06 0)
(0.000641788333104 1.34924416666e-06 0)
(0.000641786108505 1.58615776071e-06 0)
(0.000641787534923 1.82933239262e-06 0)
(0.00064179447811 2.07684798279e-06 0)
(0.000641809130325 2.32550300598e-06 0)
(0.000641833991171 2.57048861613e-06 0)
(0.000641871806504 2.80501061941e-06 0)
(0.000641925444429 3.01986272514e-06 0)
(0.000641997681766 3.20296316096e-06 0)
(0.000642090870321 3.33887974343e-06 0)
(0.000642206447763 3.40838752635e-06 0)
(0.000642344269677 3.38812641065e-06 0)
(0.000642501722555 3.25046038099e-06 0)
(0.000642672713272 2.9636581543e-06 0)
(0.000642846295973 2.49261075966e-06 0)
(0.000643006158266 1.80025283431e-06 0)
(0.000643127450908 8.51296411405e-07 0)
(0.000643185779789 -3.79331579674e-07 0)
(0.0006431343491 -1.76066434614e-06 0)
(0.000672474309928 2.76538106547e-06 0)
(0.000672613276121 1.46025927092e-06 0)
(0.000672629217784 2.65732362144e-07 0)
(0.000672569537253 -6.96023307914e-07 0)
(0.000672454050295 -1.44000547991e-06 0)
(0.000672306966539 -1.99017676779e-06 0)
(0.000672145168678 -2.37335222578e-06 0)
(0.000671981538086 -2.61607538315e-06 0)
(0.000671824758202 -2.74337837075e-06 0)
(0.000671680316127 -2.77797227236e-06 0)
(0.000671551185455 -2.73984949611e-06 0)
(0.000671438517181 -2.64614939774e-06 0)
(0.000671342198091 -2.51121960798e-06 0)
(0.0006712613007 -2.34680024311e-06 0)
(0.000671194423592 -2.16227817869e-06 0)
(0.000671139939436 -1.96497144366e-06 0)
(0.000671096167436 -1.76041682403e-06 0)
(0.000671061487405 -1.55264368634e-06 0)
(0.000671034410518 -1.34442456793e-06 0)
(0.00067101361931 -1.13749837888e-06 0)
(0.000670997986909 -9.32765624111e-07 0)
(0.000670986583146 -7.30457322906e-07 0)
(0.000670978673233 -5.30280675044e-07 0)