/*--------------------------------*- C++ -*----------------------------------*\
| =========                 |                                                 |
| \\      /  F ield         | OpenFOAM: The Open Source CFD Toolbox           |
|  \\    /   O peration     | Version:  2.4.0                                 |
|   \\  /    A nd           | Web:      www.OpenFOAM.org                      |
|    \\/     M anipulation  |                                                 |
\*---------------------------------------------------------------------------*/
FoamFile
{
    version     2.0;
    format      ascii;
    class       volScalarField;
    location    "0.3";
    object      rho;
}
// * * * * * * * * * * * * * * * * * * * * * * * * * * * * * * * * * * * * * //

dimensions      [1 -3 0 0 0 0 0];

internalField   nonuniform List<scalar> 
100
(
2.90705206267e+26
6.12406771968e+31
-7.11994898138e+32
-3.73648552865e+35
4.55531519628e+37
2.01570495458e+39
-2.59570503694e+40
8.92967953999e+43
-8.46538426196e+43
-1.41224178223e+41
8.78037042147e+25
2.94103903484e+27
-2.99755165789e+31
5.65624107928e+32
4.51387381351e+36
9.59262908009e+34
8.59676136107e+38
-4.61920901869e+39
-5.78572306724e+39
3.6958600444e+39
-2.81345069746e+23
-1.95940462458e+26
3.80171597427e+26
6.43567944722e+29
-3.49849177073e+31
-2.52241793397e+33
7.80675675269e+34
-4.85299965427e+37
4.57043366061e+37
2.04650720106e+35
5.11295642628e+22
1.58671478815e+22
1.93073393716e+26
-9.22344975831e+26
-2.78940507731e+30
-3.15699580255e+29
-1.25459137682e+33
6.30367716928e+33
7.30757653687e+33
-4.71569609442e+33
-3.34915522884e+21
3.01480150497e+22
-2.55509608722e+23
1.11490994411e+25
-1.16887703878e+27
-3.79872781284e+28
-5.3598809805e+29
5.34230588979e+31
-7.22147496884e+31
-1.03487624488e+31
8.16426403408e+22
1.33210516831e+23
3.25946706412e+23
-2.2298579055e+25
1.60794265338e+26
-1.61517316034e+28
-1.03790493758e+29
-3.04973642819e+29
-2.60259252211e+30
-3.56577017275e+30
-5.45883170184e+22
3.24707453412e+21
-1.48449320923e+23
-3.09531058632e+23
-7.17939669545e+25
3.91424292532e+26
-2.93587740031e+28
3.45915215145e+28
-1.10027522585e+30
-2.23450253471e+31
-3.33457111416e+19
-2.93168147677e+21
-9.10175946126e+21
1.52036087293e+23
1.84980048483e+25
-7.19489038926e+25
-8.50085892093e+26
1.42588882917e+29
7.42045432004e+31
-7.71540060309e+31
1.02548572338e+24
-2.05230121267e+21
-2.33456382836e+21
-2.22658572948e+23
-2.13091622874e+24
5.52085131604e+26
9.33706491417e+27
-1.46535979046e+31
-5.98822087379e+31
9.5684943978e+32
2.26320918518e+24
6.73495383118e+23
2.58179810789e+21
7.24370948423e+21
-8.94303754845e+23
-1.71326282536e+25
2.76698955813e+27
6.01046899902e+28
-6.11905099241e+31
-1.14976309832e+32
)
;

boundaryField
{
    top
    {
        type            bounceBack;
        value           uniform 1;
    }
    bottom
    {
        type            bounceBack;
        value           nonuniform 0();
    }
    left
    {
        type            cyclic;
    }
    right
    {
        type            cyclic;
    }
    frontAndBack
    {
        type            empty;
    }
    procBoundary3to1
    {
        type            processor;
        value           nonuniform List<scalar> 10(9.17851263416e+24 -3.94197288054e+26 -1.81777843769e+30 1.80963481691e+31 8.25605932562e+36 2.28871864834e+35 2.66845803586e+39 -9.61202935909e+39 -1.06970230796e+40 6.57404990051e+39);
    }
    procBoundary3to2
    {
        type            processor;
        value           nonuniform List<scalar> 10(3.25219411776e+22 3.69882086614e+20 -3.8547411892e+21 8.06608831728e+20 -4.16802997739e+20 9.85807200894e+19 1.21276373876e+18 -1.15785808558e+19 -7.65657408169e+18 -2.90186550649e+16);
    }
    procBoundary3to2throughright
    {
        type            processorCyclic;
        value           nonuniform List<scalar> 10(-1.34991859552e+36 -8.12324880778e+31 3.04647945311e+31 -1.67726302137e+30 -7.55681441025e+29 -6.42179666609e+27 -1.28036867376e+26 4.01795721428e+27 3.95070720317e+27 -4.30874398446e+27);
    }
}


// ************************************************************************* //
