/*--------------------------------*- C++ -*----------------------------------*\
| =========                 |                                                 |
| \\      /  F ield         | OpenFOAM: The Open Source CFD Toolbox           |
|  \\    /   O peration     | Version:  2.4.0                                 |
|   \\  /    A nd           | Web:      www.OpenFOAM.org                      |
|    \\/     M anipulation  |                                                 |
\*---------------------------------------------------------------------------*/
FoamFile
{
    version     2.0;
    format      ascii;
    class       volVectorField;
    location    "0.3";
    object      U;
}
// * * * * * * * * * * * * * * * * * * * * * * * * * * * * * * * * * * * * * //

dimensions      [0 1 -1 0 0 0 0];

internalField   nonuniform List<vector> 
100
(
(-1.84168368433 -0.0791070288834 0)
(-1.85094504736 -0.337428724252 0)
(-0.725868276941 -0.134131551124 -0)
(-17.1274024964 -6.74728342628 -0)
(0.239853822727 1.17919416224 0)
(-0.601042101023 0.994559573947 0)
(0.165123620382 1.96987049854 -0)
(0.0618424120997 1.12243243446 0)
(0.0673843973229 1.11907657721 -0)
(0.0656654548217 1.12141649388 -0)
(-0.715963840635 -2.68946281144 0)
(-1.04500723228 0.987282469525 0)
(1.96035148461 0.216477045313 -0)
(0.40296608783 0.95021077286 0)
(0.053256115404 1.16207771406 0)
(-0.474794980194 1.29202082399 0)
(-0.0529311097721 1.26665742275 0)
(-0.228349167901 1.18948529303 -0)
(0.0682849208535 1.15657679024 -0)
(0.0803357838266 1.16166604727 0)
(-1.52240893679 0.0782771951921 -0)
(-1.55507684566 -1.31256944614 -0)
(2.23721807448 1.16480970087 0)
(9.05392039725 0.528384630365 0)
(0.0309539812899 1.20504172548 -0)
(-0.514343838561 1.24143994464 -0)
(-0.0422703092494 1.12804269057 0)
(0.00970351945368 1.16267257248 -0)
(0.0101116847045 1.16331965973 0)
(0.0508971117615 1.15457257206 0)
(-1.51567349321 -1.53005976753 0)
(0.431112082721 3.1083194603 0)
(-0.218713020526 0.771268507375 0)
(-0.852295853102 0.985527964757 -0)
(0.00312207372177 1.15275337095 -0)
(-0.898863455438 0.819881126075 -0)
(0.0199106514756 1.14081681685 -0)
(-0.121255477278 1.17872106908 0)
(0.0863555762759 1.13779793371 0)
(0.0360524628098 1.15186533726 -0)
(-27.0150176223 6.81993065447 -0)
(-1.68476998523 -0.0759480582182 0)
(3.32240274845 2.0838053551 -0)
(-5.29990550945 -1.87155689378 0)
(-0.949228542211 0.765078351444 -0)
(-1.07209208007 0.792264794211 -0)
(1.00670183341 -1.07419723081 -0)
(0.155820867156 1.16832813849 0)
(-0.435851638679 1.64450617908 -0)
(2.20942026084 -3.25514149675 -0)
(-3.35376809445 3.15484887134 0)
(-0.798212166595 -0.317711372374 0)
(2.72147625695 0.944854444355 0)
(-1.08723012615 0.203592293611 -0)
(-1.03515239251 0.49812654857 0)
(-1.10680657988 0.642139485333 -0)
(9.10750943829 -9.02543572404 -0)
(-7.32852558566 8.0054078386 -0)
(-0.205960581683 0.736835920825 -0)
(-0.450527361898 1.49504956298 -0)
(-0.209149072873 0.463191523062 -0)
(-5.01087308607 0.843964370238 0)
(-0.339982068486 -0.389964774432 -0)
(-0.667429832354 1.26958545286 -0)
(-1.13794515595 0.504578341687 -0)
(-0.934789063631 0.71393375251 0)
(-0.615565017706 1.11255422763 -0)
(6.91412320363 -9.31758516569 0)
(-0.403622479581 0.636858143465 -0)
(0.536506257535 -1.20270416071 -0)
(-104.01479418 89.5486806622 -0)
(1.06755784385 -1.00190738803 -0)
(-1.2002703291 -0.0155118119332 -0)
(-0.786694526788 0.688499637677 0)
(-1.13561948938 -0.0980410714214 0)
(-2.0071867802 1.0281114722 -0)
(-1.99749632987 0.681703377161 -0)
(-1.40537929933 1.57492821128 0)
(-0.243897053681 -0.0651880528714 0)
(-5.50867534743 6.09829467391 -0)
(1.55038599211 -0.945157304338 0)
(-9.56057070611 3.22916082426 -0)
(5.37995272311 -1.85472545108 -0)
(-1.15895604906 0.163688199461 -0)
(-1.35633766242 0.124369690153 -0)
(-1.24985975086 0.170142593131 0)
(-0.998955415317 0.905628037324 0)
(-1.13374533979 0.778951594967 -0)
(3.41797805739 -4.20476515675 -0)
(-26.1463902502 32.0885956275 0)
(-4.61952703685 2.51028710543 0)
(1.12535088282 -0.310031459781 0)
(-1.05757449602 -0.0355144573637 0)
(-0.136367818105 -1.4260506589 0)
(-1.14755895785 0.351455458613 -0)
(-1.11683656036 0.41761383458 -0)
(-1.1183408468 0.548606525952 0)
(-1.02792033662 1.16643619385 0)
(-0.98286536457 1.20606511217 -0)
(3.24520284848 -3.64643350002 -0)
)
;

boundaryField
{
    top
    {
        type            fixedValue;
        value           uniform (0.1 0 0);
    }
    bottom
    {
        type            fixedValue;
        value           nonuniform 0();
    }
    left
    {
        type            cyclic;
    }
    right
    {
        type            cyclic;
    }
    frontAndBack
    {
        type            empty;
    }
    procBoundary3to1
    {
        type            processor;
        value           nonuniform List<vector> 10((1.33386988099 -1.41963019919 0) (1.60140723197 0.216326428127 -0) (-2.87495819119 -1.62508472906 -0) (-5.75208517259 -11.6009016467 0) (0.250151879086 1.127991317 0) (-0.498807473342 1.01338627977 0) (-0.434900581756 0.787034314873 0) (-1.0357379563 1.015905542 -0) (0.218654214321 1.13215794489 -0) (0.315000088749 1.14366139063 0));
    }
    procBoundary3to2
    {
        type            processor;
        value           nonuniform List<vector> 10((0.973105115369 0.915741625368 0) (9.10400445508 1.13072489377 0) (3.47976577983 0.783980982795 -0) (1.57763771327 0.976165528614 0) (3.47926554118 0.540263477697 -0) (-27.2630955204 26.6222938325 0) (-8.28142269604 18.7627711452 0) (-0.132206712916 -1.71112819931 -0) (-0.189060337602 0.624026583099 -0) (-2528.66994352 1281.93954909 -0));
    }
    procBoundary3to2throughright
    {
        type            processorCyclic;
        value           nonuniform List<vector> 10((0.100301839828 1.12235726075 -0) (1.88191534187 -2.35717858742 -0) (0.977101816609 -1.58159614375 0) (2.87315528349 -3.56066011097 -0) (-0.76930499426 1.46390775329 -0) (-2.59842605115 6.22949329001 -0) (14.3002272079 -17.2853288101 -0) (1.11330773217 -1.45400300079 0) (-3.34743809858 4.18308102948 0) (-0.0585667454726 0.340625074936 -0));
    }
}


// ************************************************************************* //
