/*--------------------------------*- C++ -*----------------------------------*\
| =========                 |                                                 |
| \\      /  F ield         | OpenFOAM: The Open Source CFD Toolbox           |
|  \\    /   O peration     | Version:  2.4.0                                 |
|   \\  /    A nd           | Web:      www.OpenFOAM.org                      |
|    \\/     M anipulation  |                                                 |
\*---------------------------------------------------------------------------*/
FoamFile
{
    version     2.0;
    format      ascii;
    class       volScalarField;
    location    "0.4";
    object      rho;
}
// * * * * * * * * * * * * * * * * * * * * * * * * * * * * * * * * * * * * * //

dimensions      [1 -3 0 0 0 0 0];

internalField   nonuniform List<scalar> 
100
(
-1.08007663076e+114
1.2860084526e+108
-3.70850062858e+105
2.7194570647e+101
-7.02173356431e+99
-3.53684861244e+94
4.13302962219e+92
2.69776477267e+88
1.11541291655e+89
-1.5955805367e+93
-2.67830016361e+115
1.96569297833e+114
-2.88056419026e+107
-4.13816403676e+107
-7.90626624511e+101
3.1571403213e+100
1.07368256243e+94
2.93559977964e+90
-1.01239450741e+93
-3.85916973659e+95
3.47316065897e+121
7.95611294662e+114
-4.06995706093e+113
-1.88483726567e+108
3.27393729096e+107
6.45829770046e+101
-1.08554843435e+100
-1.83855382304e+93
-1.83023095003e+95
4.89745100472e+99
5.6835540466e+122
-3.78210358747e+121
2.28688337047e+114
1.2837980627e+113
7.94431313343e+106
-1.59795052944e+106
-3.7393588452e+101
6.15089218542e+98
1.9698568467e+99
6.26877052945e+100
-5.26114832643e+129
1.80206345384e+122
8.55542050177e+120
-1.87872691471e+115
-2.5228146178e+113
7.17424556346e+107
9.7687747917e+105
-4.05644540583e+100
5.5185454092e+99
-6.2372289247e+105
-1.39341536296e+122
1.14055090525e+121
1.38789801732e+115
-4.1325011114e+114
-8.4911772444e+107
1.55867732395e+107
1.1002648897e+100
-8.72166808938e+99
-3.96425340696e+96
-4.57331549278e+99
4.25756185933e+121
-4.00451726604e+116
-1.07337509709e+116
7.10073033266e+109
4.60446591061e+108
-4.28844971724e+102
-2.5310532084e+101
3.67492939589e+95
1.43597784325e+94
7.30214839104e+99
-9.62976037592e+115
-1.94815659894e+116
2.23136765967e+110
1.39467269981e+109
-3.12926411529e+103
-8.67841548588e+101
2.40962328216e+96
6.8292913442e+94
-6.48390589277e+93
-5.84879496441e+94
-2.53996061158e+115
1.52930935342e+110
1.87433402632e+109
-5.56121026921e+103
-1.65709035405e+102
5.73916445851e+96
1.60827442838e+95
-8.24375753455e+89
-1.05293992792e+89
1.30083412325e+94
1.62747128353e+109
7.38270759346e+108
-3.90407054489e+103
-2.0921777548e+102
8.7215553474e+96
2.82618250186e+95
-1.55543514572e+90
-4.42812212356e+88
5.22411665035e+88
-1.21458063826e+88
)
;

boundaryField
{
    top
    {
        type            bounceBack;
        value           nonuniform 0();
    }
    bottom
    {
        type            bounceBack;
        value           uniform 1;
    }
    left
    {
        type            cyclic;
    }
    right
    {
        type            cyclic;
    }
    frontAndBack
    {
        type            empty;
    }
    procBoundary0to1
    {
        type            processor;
        value           nonuniform List<scalar> 10(1.4000104938e+89 -1.23257783487e+93 -3.12611603323e+95 3.2206770965e+99 8.99484417813e+99 -2.38410552831e+98 -3.57436733619e+93 -2.98557520591e+93 -5.28718305605e+88 -2.54275802585e+86);
    }
    procBoundary0to1throughleft
    {
        type            processorCyclic;
        value           nonuniform List<scalar> 10(4.06512757933e+106 7.39634964083e+112 5.10507154011e+113 -4.72564809599e+120 2.93946720091e+121 4.72991624815e+120 1.33377186541e+112 -1.4315594886e+113 -7.91120120649e+107 5.9616167463e+105);
    }
    procBoundary0to2
    {
        type            processor;
        value           nonuniform List<scalar> 10(-4.2671304723e+100 6.78416229125e+95 8.89761299164e+94 -8.73298562272e+89 -3.98472997703e+88 3.3499076037e+83 1.07897715896e+82 -1.24688172609e+77 1.04883904928e+76 1.35383345413e+81);
    }
}


// ************************************************************************* //
