/*--------------------------------*- C++ -*----------------------------------*\
| =========                 |                                                 |
| \\      /  F ield         | OpenFOAM: The Open Source CFD Toolbox           |
|  \\    /   O peration     | Version:  2.4.0                                 |
|   \\  /    A nd           | Web:      www.OpenFOAM.org                      |
|    \\/     M anipulation  |                                                 |
\*---------------------------------------------------------------------------*/
FoamFile
{
    version     2.0;
    format      ascii;
    class       volVectorField;
    location    "0.4";
    object      U;
}
// * * * * * * * * * * * * * * * * * * * * * * * * * * * * * * * * * * * * * //

dimensions      [0 1 -1 0 0 0 0];

internalField   nonuniform List<vector> 
100
(
(-0.195430437831 -1.15274333752 -0)
(3.34974214715 -4.07191074642 0)
(2.49797133848 -4.02127615156 -0)
(-2.14867712779 -1.85221391683 0)
(-2.50785148618 -1.08172755409 -0)
(1.11907498226 1.09703640948 -0)
(0.927385548358 1.37882432753 0)
(0.728913110245 -0.920233429455 0)
(-1.13907053185 -0.442231498379 0)
(-1.07254201458 -0.662672488132 -0)
(-0.923225829434 1.30956779641 -0)
(0.627085999604 0.019794319432 0)
(0.427929712375 0.104903430002 -0)
(0.0257851438468 -1.03363819783 -0)
(0.138691580992 0.275597780854 -0)
(0.0517788002305 -0.605764714816 0)
(-0.668444429883 -0.31721061609 0)
(99.3360806483 -34.172839108 0)
(-1.13730693084 -0.483006500102 -0)
(-1.19821245999 -0.383769971785 -0)
(0.304144205033 1.95149533172 0)
(-0.141810031089 -0.824849488869 0)
(-0.874317794327 -0.756423000237 -0)
(0.740095469087 4.17423147653 -0)
(0.427743196109 1.69580749991 0)
(-0.488416325747 -0.30548352058 0)
(0.793563992702 0.0161593793761 -0)
(5.98004612738 -16.9015853562 -0)
(-1.28761004929 -0.0464399661028 -0)
(-1.17846197076 -0.407188023989 0)
(-0.711757463375 -0.102237507946 0)
(-0.457557703226 -0.639354217044 -0)
(-0.313946035202 3.18523131758 0)
(-3.2538743782 -12.9058802196 0)
(14.0460170693 5.97558693619 0)
(1.06040687119 3.75490852679 -0)
(1.16026920419 0.184651996006 -0)
(1.07147250919 1.49920313564 0)
(-1.17568156488 -0.152784676401 0)
(-1.13696181788 -0.183716410089 0)
(-0.853381364906 -0.0750546255584 -0)
(2.41177649033 0.24880610914 0)
(1.14598659492 0.359919580614 0)
(1.11963025109 0.0450459495009 -0)
(1.15949259509 0.0833287808811 -0)
(1.16870596628 0.00869336181006 0)
(1.15774317466 0.0181234986877 0)
(1.12538968857 0.00160931509045 -0)
(-1.81549987392 -0.00264912322755 0)
(-1.158003542 -0.000731060517585 -0)
(4.13389323969 0.684022183787 -0)
(4.79354213726 -1.65906992771 0)
(2.18582908842 -0.782320536393 0)
(1.11927300068 -0.109849492437 -0)
(1.15334464327 -0.595032626244 -0)
(1.16834251984 0.0292530513619 0)
(1.27895667762 -2.10501720812 0)
(1.16336207443 0.0500167938119 -0)
(7.23631344472 -73.6526997576 -0)
(-0.906454613666 -1.00105082588 -0)
(13.86084857 6.37548010642 0)
(-3.29502772901 -1.65739833534 -0)
(1.22976305869 0.243608094794 -0)
(1.09462340831 0.377562102686 0)
(1.154737495 0.0778946856832 0)
(1.20200723625 0.0679047155667 -0)
(1.16211375879 0.040350809711 -0)
(1.17470857591 0.00568084184204 0)
(1.88914973342 -0.324642789737 0)
(-1.04279634301 -0.125033286955 0)
(-5.98166532654 -3.22995362106 -0)
(1.44436239869 0.886212005944 -0)
(1.83081032217 0.868894952785 0)
(1.15964174837 0.428874329488 0)
(1.12986902795 0.266122683352 -0)
(1.18295452176 0.307575363583 -0)
(1.19398533444 0.165504735895 0)
(1.18227988071 0.250117769276 0)
(-1.26688896463 -0.196356599712 -0)
(-2.74580111936 3.38492385416 -0)
(1.16559302051 1.12119266147 -0)
(1.7862391153 1.03784263612 0)
(1.02850151724 0.905899320643 0)
(1.13010362627 0.695121426721 -0)
(1.12613155567 0.661083372912 -0)
(1.1759556794 0.503987128839 0)
(1.15674799491 0.497864953778 0)
(1.08403691612 0.357919626292 -0)
(2.93348330373 -0.277681923728 -0)
(14.874966925 3.25676365479 0)
(1.19145553274 0.880258856517 0)
(0.581817430853 1.12147555388 0)
(0.985600125814 0.977952685096 -0)
(0.946745927098 0.947398433144 -0)
(1.05737173614 0.816751945567 0)
(1.06258525595 0.731875312971 0)
(1.13278547868 0.629481969917 -0)
(1.11350839401 0.579725504435 -0)
(0.573228595301 0.297771492558 0)
(-3.7177172364 -3.93317110205 -0)
)
;

boundaryField
{
    top
    {
        type            fixedValue;
        value           nonuniform 0();
    }
    bottom
    {
        type            fixedValue;
        value           uniform (0 0 0);
    }
    left
    {
        type            cyclic;
    }
    right
    {
        type            cyclic;
    }
    frontAndBack
    {
        type            empty;
    }
    procBoundary0to1
    {
        type            processor;
        value           nonuniform List<vector> 10((-1.13553250821 -0.65251472155 0) (-1.11815502899 -0.576480114581 -0) (-1.16620107454 -0.0474907737112 -0) (-1.17634353389 -0.16432689504 0) (-1.1597157311 -0.00723011355144 0) (-0.902895501573 -2.14392051634 -0) (-2.00843408561 -1.71704834097 -0) (-2.76601151984 -0.781178079859 -0) (-0.711029351475 0.477381610797 -0) (-1.00507358914 8.15062671956 -0));
    }
    procBoundary0to1throughleft
    {
        type            processorCyclic;
        value           nonuniform List<vector> 10((1.85509315967 -0.923932535137 0) (0.710412019225 -0.934282204707 0) (4.64319449592 0.445437991522 0) (-2.89169722158 -0.257823799186 -0) (-2.72018460985 -0.332016033085 0) (4.13331921424 0.99821683899 0) (71.2981852681 60.0163717941 0) (1.24283141759 1.17038464051 -0) (0.728452889493 1.12720364719 -0) (0.318425305984 1.14384540858 0));
    }
    procBoundary0to2
    {
        type            processor;
        value           nonuniform List<vector> 10((0.0902541899974 1.12193471183 -0) (0.382395982473 1.12602264276 0) (0.59050256892 1.05221018905 0) (0.875640287056 0.959338426844 -0) (0.916348021965 0.89633311005 -0) (1.04445918431 0.801459331298 0) (1.06519064676 0.734541150808 0) (1.11737144908 0.64468776543 -0) (-1.30541085643 0.954849614463 0) (-0.841481682943 1.34939629007 0));
    }
}


// ************************************************************************* //
