/*--------------------------------*- C++ -*----------------------------------*\
| =========                 |                                                 |
| \\      /  F ield         | OpenFOAM: The Open Source CFD Toolbox           |
|  \\    /   O peration     | Version:  2.4.0                                 |
|   \\  /    A nd           | Web:      www.OpenFOAM.org                      |
|    \\/     M anipulation  |                                                 |
\*---------------------------------------------------------------------------*/
FoamFile
{
    version     2.0;
    format      ascii;
    class       volScalarField;
    location    "0.3";
    object      rho;
}
// * * * * * * * * * * * * * * * * * * * * * * * * * * * * * * * * * * * * * //

dimensions      [1 -3 0 0 0 0 0];

internalField   nonuniform List<scalar> 
100
(
5.90833748142e+35
1.48242532314e+38
1.64593143564e+38
-1.29320867375e+41
2.63401381741e+43
4.42297701908e+46
-1.29648928078e+48
-2.69384010292e+50
2.68311469023e+50
-4.54268444865e+46
2.26622168507e+38
1.06228445909e+39
-1.33719658785e+41
4.94577742104e+44
1.16761985765e+47
-5.92156352669e+48
-9.46781007808e+51
1.41747277463e+52
6.06672728037e+51
-4.88494526226e+51
7.58303185205e+37
-7.67872371584e+40
8.45942692828e+44
1.01277110875e+47
9.26381309077e+47
-5.55276999653e+52
5.22329198867e+50
8.04315923304e+56
-8.02659811704e+56
-3.45398302515e+52
-3.77789443398e+40
-1.86630103914e+42
6.09980749983e+46
3.19221282322e+48
-9.11235193584e+52
-3.58142530919e+53
2.68773760009e+58
-2.35922533032e+58
-3.01106343753e+58
2.68331606529e+58
-1.04184464824e+41
1.21281199515e+46
1.41320488853e+47
-1.87068471007e+52
-1.86414377703e+53
5.5738716873e+58
1.67520719973e+59
-7.88920360479e+59
7.88424128282e+59
-1.67018554701e+59
2.54924472556e+39
5.63732413449e+40
-9.39333756983e+45
-1.32171323597e+47
2.23734861163e+52
1.72402446116e+53
-2.69598159077e+58
3.0168991764e+58
2.3711655795e+58
-2.69165339129e+58
1.26322077591e+36
-5.01928786136e+40
9.46704799194e+40
4.28181393546e+46
-5.78614917083e+46
-2.69882519485e+52
3.27242410973e+52
8.1924412979e+56
-8.17753226007e+56
-1.21375233725e+51
1.72029172809e+35
2.05622874856e+37
-4.89600895548e+41
-2.4182201735e+42
1.23448057252e+45
1.25598493221e+47
4.92651366966e+51
-6.03214696756e+51
-1.42781753252e+52
9.51617627921e+51
4.33629835252e+31
-3.45509217815e+36
-1.74858112395e+38
5.29668581542e+42
-1.37489094946e+43
-3.64210484577e+45
5.7204462939e+46
-2.75654479674e+50
2.74539777089e+50
7.02975147546e+47
-4.70763563617e+30
1.23210090966e+32
1.2301325312e+36
-4.01620997519e+37
-3.32232181147e+42
-9.92603914797e+40
-2.67754496972e+45
9.63850076742e+45
1.07666066768e+46
-6.6119638708e+45
)
;

boundaryField
{
    top
    {
        type            bounceBack;
        value           nonuniform 0();
    }
    bottom
    {
        type            bounceBack;
        value           uniform 1;
    }
    left
    {
        type            cyclic;
    }
    right
    {
        type            cyclic;
    }
    frontAndBack
    {
        type            empty;
    }
    procBoundary1to0
    {
        type            processor;
        value           nonuniform List<scalar> 10(2.40268866259e+24 1.99788356906e+27 -1.88212110073e+29 -2.44737177309e+30 1.54127402669e+34 7.65798061402e+29 -1.11905913071e+30 -1.9642781672e+28 -7.67527279278e+25 6.79737335894e+23);
    }
    procBoundary1to0throughright
    {
        type            processorCyclic;
        value           nonuniform List<scalar> 10(8.56387141988e+40 2.05758259388e+42 -1.37752192246e+47 -2.29269555057e+48 7.00231630147e+53 5.45488265551e+47 -1.67902753354e+47 1.21888795068e+43 2.52497299029e+42 -5.991819176e+37);
    }
    procBoundary1to3
    {
        type            processor;
        value           nonuniform List<scalar> 10(-8.43769774432e+22 -5.0362747449e+26 1.20950923775e+27 3.20090327646e+29 -4.71803545674e+31 -4.51887749504e+33 5.80840016368e+34 -8.9418545734e+37 8.45304722897e+37 3.96563508341e+35);
    }
}


// ************************************************************************* //
