/*--------------------------------*- C++ -*----------------------------------*\
| =========                 |                                                 |
| \\      /  F ield         | OpenFOAM: The Open Source CFD Toolbox           |
|  \\    /   O peration     | Version:  2.4.0                                 |
|   \\  /    A nd           | Web:      www.OpenFOAM.org                      |
|    \\/     M anipulation  |                                                 |
\*---------------------------------------------------------------------------*/
FoamFile
{
    version     2.0;
    format      ascii;
    class       volVectorField;
    location    "0.3";
    object      U;
}
// * * * * * * * * * * * * * * * * * * * * * * * * * * * * * * * * * * * * * //

dimensions      [0 1 -1 0 0 0 0];

internalField   nonuniform List<vector> 
100
(
(-1.1349769261 -0.0329046484848 0)
(-2.89250998637 -0.966146554179 0)
(-4.51018480619 -2.22059296851 0)
(-0.887214852522 -0.986882423768 -0)
(-3.26000716996 -1.06292794772 0)
(-0.57423577785 -1.1063203436 0)
(-0.725981887614 -1.13462533667 -0)
(-1.0785888492 -1.16193607854 -0)
(-1.07884380252 -1.16190016706 0)
(1.86082294301 -0.924252661059 -0)
(-1.12652614808 -0.116303232451 0)
(10.8599856497 2.17773566918 0)
(-1.01893882955 -0.692129692472 -0)
(-3.61463412851 -0.947380768537 0)
(-1.0337270916 -0.934517097643 0)
(-1.02317984745 -1.01850317664 -0)
(-1.25742268644 -1.17225464094 -0)
(-0.912998847234 -1.30349378566 0)
(5.09380727237 -1.88816946231 0)
(0.720053316386 -0.934884516027 -0)
(-1.16581893262 -0.0439188808044 0)
(-1.13326814734 -0.479325576888 -0)
(-1.12833073093 -0.0891668489507 0)
(-1.16768273503 -0.581804854176 0)
(-16.6544231261 -2.85053289046 0)
(-1.7117963353 -1.05471352536 -0)
(-120.964497763 -102.686094821 0)
(-5.13862817246 -1.12866607667 0)
(-5.13962025997 -1.12879970323 -0)
(4.59525388679 0.441849841657 -0)
(-1.17610768771 -0.162205096293 -0)
(-1.17862452818 -0.0770068918659 -0)
(-1.18229275596 -0.173931829786 0)
(-1.12580165619 -0.20153835874 0)
(-1.14075020938 -0.156523179162 -0)
(5.85424852755 1.04643856891 -0)
(-4.16735922238 -0.997879015214 0)
(-3.21000207364 -1.65763093495 -0)
(-4.84132494277 0.0531188366337 -0)
(-2.90879853109 -0.256745435978 0)
(-1.15971617554 -0.00725025455877 -0)
(-1.15744435753 -0.00337689713625 0)
(-1.23121622805 -0.0365400699957 0)
(-1.16189652321 -0.0155883893939 -0)
(-1.0826594293 -0.198415269074 -0)
(-1.1282705851 -0.0743092439826 0)
(2.71697782625 0.331503233299 0)
(698.549291295 84.248015243 -0)
(697.915946858 84.161220498 0)
(-2.72182649726 -0.3322778589 -0)
(-0.882086596742 -2.32001850982 0)
(-2.65968271762 -2.650419442 0)
(-1.02549506117 -1.11395751262 -0)
(-1.06520452188 -0.935748382376 -0)
(-1.03819381761 -0.867119564286 0)
(1.7947173423 0.240168309802 0)
(2.86047798491 0.259729719017 -0)
(4.74442079962 -0.0561102340929 0)
(3.1771220271 1.65537329275 0)
(4.11480032535 0.998323455459 -0)
(-2.86593471192 -1.83025044995 0)
(-3.09351318456 -1.39139071039 -0)
(-0.654102082968 0.12385215514 0)
(-1.62872857784 -0.573111440164 0)
(-4.36123441463 -1.19551346105 -0)
(-1.54027556983 -0.0431817209679 -0)
(-4.7183302008 -0.451104005774 0)
(5.06593230129 1.12761073215 0)
(5.06624922569 1.12748396768 -0)
(51.8698908076 43.4541021652 -0)
(-6.75219279724 -2.24853323392 0)
(-1.0511909422 -1.50938227841 0)
(-0.861260188194 -1.56992335794 -0)
(3.97507331613 8.66680105589 -0)
(47.1278621041 113.794447366 0)
(-0.799846994916 -1.51150957843 0)
(-0.696195824805 0.933565898187 0)
(-4.97677095802 1.90748697999 -0)
(0.895328034826 1.29662075923 -0)
(1.23280846525 1.16825827251 0)
(-2.02653909702 -0.649897149337 0)
(-0.994002698389 0.427424468615 -0)
(-0.344146369803 -0.573321370749 -0)
(-0.369885029088 -0.460673829157 0)
(-1.29320631052 -3.33022736767 -0)
(-0.746216147236 1.1416878334 -0)
(-1.62004267953 0.807621354959 0)
(1.05963158112 1.162116804 -0)
(1.05985859801 1.16227745588 0)
(0.732271169339 1.12701238272 0)
(-1.02242919521 -0.51077220173 -0)
(-3.49095548962 -2.32114078119 0)
(-2.60109260268 -1.12579659206 0)
(-2.70801287137 -4.86593465625 -0)
(0.245815367062 1.12807608857 -0)
(-0.520679051394 1.00947670415 -0)
(-0.431886750354 0.795824765956 -0)
(-1.03877875972 1.01827118669 0)
(0.219353142335 1.13216213009 0)
(0.316429389378 1.14368636958 -0)
)
;

boundaryField
{
    top
    {
        type            fixedValue;
        value           nonuniform 0();
    }
    bottom
    {
        type            fixedValue;
        value           uniform (0 0 0);
    }
    left
    {
        type            cyclic;
    }
    right
    {
        type            cyclic;
    }
    frontAndBack
    {
        type            empty;
    }
    procBoundary1to0
    {
        type            processor;
        value           nonuniform List<vector> 10((-1.11045084194 -0.662390652305 0) (-1.18372745103 -0.331539090279 0) (-1.17869391352 -0.419095563858 -0) (-1.13698216585 -0.183629940511 -0) (-1.15800042615 -0.000736494103069 0) (-1.04924945313 -0.566762979565 0) (-1.10241401193 -0.25323626937 -0) (1.10054639722 -0.00381066926407 -0) (0.34357762278 0.361582226249 -0) (2.57861629435 0.821028583022 0));
    }
    procBoundary1to0throughright
    {
        type            processorCyclic;
        value           nonuniform List<vector> 10((-0.216525364245 -1.15265574689 0) (-0.871741283181 1.28878604042 0) (0.338799456594 1.9784098561 -0) (-0.714556960149 -0.102973987997 -0) (-0.85501208582 -0.0754470676288 0) (4.62428851253 0.88339637797 0) (15.3468402165 6.99673843031 -0) (-6.32665857117 -3.3753342821 0) (1.20727032807 1.12204413611 0) (1.07056307402 0.728464476567 -0));
    }
    procBoundary1to3
    {
        type            processor;
        value           nonuniform List<vector> 10((-2.86090320709 1.96596117683 -0) (-1.26755750767 -0.241534233918 -0) (-1.43094238943 1.3203205796 0) (26.9686441957 3.38921928234 0) (0.201737901891 1.17241568288 -0) (-0.602398525156 0.995739341955 -0) (0.156937078611 1.9566781545 0) (0.0617315766704 1.12228592246 -0) (0.0659931015255 1.11894695154 0) (0.0586922060486 1.12200342916 0));
    }
}


// ************************************************************************* //
