/*--------------------------------*- C++ -*----------------------------------*\
| =========                 |                                                 |
| \\      /  F ield         | OpenFOAM: The Open Source CFD Toolbox           |
|  \\    /   O peration     | Version:  2.4.0                                 |
|   \\  /    A nd           | Web:      www.OpenFOAM.org                      |
|    \\/     M anipulation  |                                                 |
\*---------------------------------------------------------------------------*/
FoamFile
{
    version     2.0;
    format      ascii;
    class       volScalarField;
    location    "0.4";
    object      rho;
}
// * * * * * * * * * * * * * * * * * * * * * * * * * * * * * * * * * * * * * //

dimensions      [1 -3 0 0 0 0 0];

internalField   nonuniform List<scalar> 
100
(
6.17669152145e+88
2.54174907913e+94
-1.89672272753e+96
-2.22306485413e+100
2.2547364434e+102
1.83336852354e+105
-2.3785197076e+106
1.17867067731e+111
-1.11712019422e+111
-2.1176310863e+107
-2.89951939981e+87
-4.40859631603e+87
-3.53979693015e+94
8.7186751505e+95
2.21017887488e+101
4.14249278273e+99
8.05733023307e+104
-4.20242423272e+105
-5.26098045052e+105
3.35179812607e+105
-1.71734658234e+82
-2.34492262112e+87
4.60981363327e+88
2.95697843517e+93
-1.96355384898e+95
-9.82422903951e+97
3.04930898076e+99
-4.34496646023e+103
4.09898268897e+103
1.04316401731e+100
1.18696133612e+81
3.95756506131e+82
1.42922400739e+87
-6.84411258806e+88
-1.48832646146e+94
-3.68743060121e+92
-4.87180757295e+97
2.42625459025e+98
2.78999168811e+98
-1.82806311677e+98
-3.56585436415e+75
-3.78063999559e+80
-1.04437491258e+82
2.49143185632e+86
2.41401573618e+88
8.21225815368e+90
-1.98346366551e+92
2.36872220087e+96
-2.23627026737e+96
-6.61125359282e+92
-4.80272646234e+73
-2.6830082722e+75
-4.57813915786e+80
6.59751452544e+81
1.4479276962e+87
4.34462923389e+85
3.20867251016e+90
-1.69567099575e+91
-1.8609507582e+91
1.2537084183e+91
8.61191520019e+69
3.03842296166e+74
2.72549539537e+75
-8.77545076484e+79
-3.35727483786e+81
-9.13286590603e+83
1.94830586366e+85
-1.61682916056e+89
1.52617488456e+89
6.14804196581e+85
-8.43158638176e+68
7.46588849991e+69
1.22769527801e+74
-8.113782176e+74
-1.68182137131e+80
-6.01451580191e+78
-3.10048878448e+83
1.71517466815e+84
1.79335927581e+84
-1.24131484583e+84
-5.17290963077e+63
-3.56811788638e+68
-1.07187078691e+69
2.81731985106e+73
7.00285577922e+74
1.21826507808e+77
-2.32330686318e+78
1.59340973015e+82
-1.50446105081e+82
-6.58628331807e+78
7.1341207815e+62
-5.02018859824e+63
-7.14975771874e+67
4.79928802949e+67
3.01009544443e+73
1.16545268657e+72
3.64104705691e+76
-2.12591484866e+77
-2.07614333572e+77
1.49059382818e+77
)
;

boundaryField
{
    top
    {
        type            bounceBack;
        value           uniform 1;
    }
    bottom
    {
        type            bounceBack;
        value           nonuniform 0();
    }
    left
    {
        type            cyclic;
    }
    right
    {
        type            cyclic;
    }
    frontAndBack
    {
        type            empty;
    }
    procBoundary3to1
    {
        type            processor;
        value           nonuniform List<scalar> 10(-2.54275802585e+86 -5.45952371374e+88 -5.0227362311e+93 3.06091820962e+95 4.04221103072e+101 9.70866469306e+99 2.41491591491e+105 -8.68029015012e+105 -9.72471855646e+105 5.9616167463e+105);
    }
    procBoundary3to2
    {
        type            processor;
        value           nonuniform List<scalar> 10(1.35383345413e+81 1.05359851991e+76 -7.30986120956e+74 1.62977263967e+69 1.14916688899e+68 -3.98854967743e+65 9.26714287736e+62 -3.33492464333e+59 9.93965147029e+55 1.4888945867e+53);
    }
    procBoundary3to2throughright
    {
        type            processorCyclic;
        value           nonuniform List<scalar> 10(-4.2671304723e+100 7.99763523187e+94 2.823323688e+93 -9.88656437414e+87 -2.83052061223e+86 1.31992691609e+81 3.46707617738e+79 -2.63023652671e+74 -6.33997494962e+72 6.30918599271e+67);
    }
}


// ************************************************************************* //
