/*--------------------------------*- C++ -*----------------------------------*\
| =========                 |                                                 |
| \\      /  F ield         | OpenFOAM: The Open Source CFD Toolbox           |
|  \\    /   O peration     | Version:  2.4.0                                 |
|   \\  /    A nd           | Web:      www.OpenFOAM.org                      |
|    \\/     M anipulation  |                                                 |
\*---------------------------------------------------------------------------*/
FoamFile
{
    version     2.0;
    format      ascii;
    class       volVectorField;
    location    "0.4";
    object      U;
}
// * * * * * * * * * * * * * * * * * * * * * * * * * * * * * * * * * * * * * //

dimensions      [0 1 -1 0 0 0 0];

internalField   nonuniform List<vector> 
100
(
(-1.91279346231 0.728130026205 0)
(-1.48406521722 -0.411633952325 0)
(-0.703603529493 -0.214525481962 -0)
(-4.68335261693 -3.16263438122 -0)
(0.269195198674 1.18198376974 0)
(-0.601789727343 1.00014977961 0)
(0.165097414965 1.96196823751 -0)
(0.0621000209253 1.12254517791 0)
(0.0695332098808 1.11918140791 -0)
(0.0519570779325 1.12226707242 -0)
(-0.372920834799 2.21233464429 -0)
(-0.802940651897 -8.50665739737 -0)
(0.466902227207 0.175072304033 -0)
(0.541267013533 1.03776511048 0)
(0.055913186707 1.16204751429 0)
(-0.418135440201 1.27338008678 0)
(-0.0570985645037 1.25361300856 0)
(-0.231216707546 1.1881795767 -0)
(0.0681155116867 1.1565769684 -0)
(0.0810477409163 1.16059396301 0)
(-0.825408116204 -0.429194565894 -0)
(-1.28276888458 -0.142174127281 -0)
(2.43106012811 1.33421118336 0)
(4.84454552501 0.464175286156 0)
(0.0424934328665 1.1997495902 -0)
(-0.515923814922 1.23874814243 -0)
(-0.0394902734355 1.12788108985 0)
(0.00965891081853 1.16271481762 -0)
(0.0107597110899 1.16321057205 0)
(0.0390014929975 1.15665477384 0)
(-0.0360769981554 1.40507313866 0)
(-0.254906203391 0.250974299617 0)
(0.64582631206 -0.506588858246 0)
(0.283974113409 1.08895634442 -0)
(0.0127255807935 1.15748421244 -0)
(-0.377519017847 1.19167500517 -0)
(0.0205521131534 1.14175041851 -0)
(-0.0760607384593 1.15787816608 0)
(0.0493472460303 1.15543356896 0)
(0.0262943990139 1.15901009406 -0)
(-0.933765439155 1.26827535802 -0)
(-1.13152237548 0.169054044189 -0)
(0.815541616868 1.15530683095 -0)
(-5.66628220258 1.46330048689 0)
(0.0073714038568 1.18315727211 0)
(-0.370214007743 1.19650151922 0)
(-0.0824475941144 1.16415286552 -0)
(0.00205778991895 1.15734182422 0)
(0.00228482559587 1.15728697575 -0)
(0.0443401442196 1.15405686385 -0)
(7.47155902602 6.17727414889 -0)
(0.702514391508 1.01766661604 -0)
(-2.13129105069 0.837454628031 -0)
(0.405968760028 1.07220169931 0)
(0.0034144892017 1.15802544154 0)
(-0.401646325096 1.18673968195 0)
(0.0393871447046 1.15420295517 0)
(-0.053409544627 1.16057925968 -0)
(0.0561550296661 1.15657889483 -0)
(0.0141768846596 1.15922089557 0)
(-0.754666130501 1.34683276046 0)
(-1.18085664236 0.8775035643 0)
(0.378419116841 1.1870826119 0)
(-1.89335876039 1.36860344712 -0)
(0.000662059652844 1.17892912973 -0)
(-0.302884258527 1.19692688183 -0)
(-0.09008596699 1.16174270559 0)
(0.000453072303557 1.15801250607 -0)
(0.000498077699513 1.15802884855 0)
(0.0492506015478 1.15402834834 0)
(-0.986211264073 0.951628850135 -0)
(-0.0595381449027 0.930854608088 0)
(-0.858814924078 1.02532610137 0)
(0.694219365997 1.02465961079 -0)
(0.001438433314 1.15793481805 -0)
(-0.368218720925 1.180659268 -0)
(0.0443285676528 1.15244100224 -0)
(-0.0515511282072 1.1598279876 0)
(0.0624262617047 1.15671609102 0)
(0.0114917967989 1.15920824392 -0)
(-0.970292853733 1.22537244238 -0)
(-0.595571388141 1.0824147104 -0)
(1.63537164395 1.50568604793 -0)
(-1.01519620156 1.26988283663 0)
(-0.000617216599534 1.17500452528 0)
(-0.259626204878 1.19177946861 0)
(-0.0929319231872 1.16246799685 -0)
(0.000106614404539 1.15792686143 0)
(0.000113326200133 1.15793650057 -0)
(0.056534126594 1.15327927218 -0)
(-0.556335828222 1.12262290733 0)
(0.10363475567 1.23194369647 -0)
(-0.37481275264 1.12612148074 -0)
(2.08044580167 1.02074999071 0)
(0.000922628050565 1.15794560607 0)
(-0.308953926215 1.19403936492 0)
(0.0405509593769 1.15461134234 0)
(-0.0382640515238 1.1486106146 -0)
(0.0521077091438 1.16740380467 -0)
(0.00960623673239 1.15871411136 0)
)
;

boundaryField
{
    top
    {
        type            fixedValue;
        value           uniform (0.1 0 0);
    }
    bottom
    {
        type            fixedValue;
        value           nonuniform 0();
    }
    left
    {
        type            cyclic;
    }
    right
    {
        type            cyclic;
    }
    frontAndBack
    {
        type            empty;
    }
    procBoundary3to1
    {
        type            processor;
        value           nonuniform List<vector> 10((-1.00507358914 8.15062671956 -0) (0.516069304999 0.0202221051021 -0) (-2.45594142266 -0.8655657566 -0) (-2.23838364483 -3.68877243771 0) (0.263666712169 1.1279295526 0) (-0.407364805006 1.02407467555 0) (-0.42839747078 0.807004678705 0) (-1.04883754137 1.02122543444 -0) (0.220539558261 1.13215876111 -0) (0.318425305984 1.14384540858 0));
    }
    procBoundary3to2
    {
        type            processor;
        value           nonuniform List<vector> 10((-0.841481682943 1.34939629007 0) (-0.914867131434 0.85832659676 0) (-0.613236854754 1.19069703079 -0) (-0.911229639893 3.78943671803 0) (3.01589462136 2.50064918377 0) (-0.0288032766936 1.1271075821 -0) (-1.11689881636 0.597646927461 0) (-0.400772955929 1.22688663222 -0) (0.707773045684 1.50501426794 0) (1.11151852956 -0.320510095733 0));
    }
    procBoundary3to2throughright
    {
        type            processorCyclic;
        value           nonuniform List<vector> 10((0.0902541899974 1.12193471183 -0) (0.146822957426 1.2609297232 0) (0.0202092404407 1.16313659171 0) (0.023868149958 1.15909267826 -0) (0.00928094896964 1.15770665512 -0) (0.00121378771891 1.17135840686 0) (0.0067845178619 1.15838912453 0) (-0.00245304877408 1.16801773213 -0) (0.0062144878037 1.15830468008 -0) (-0.00250583565516 1.13855840798 0));
    }
}


// ************************************************************************* //
