/*--------------------------------*- C++ -*----------------------------------*\
| =========                 |                                                 |
| \\      /  F ield         | OpenFOAM: The Open Source CFD Toolbox           |
|  \\    /   O peration     | Version:  2.4.0                                 |
|   \\  /    A nd           | Web:      www.OpenFOAM.org                      |
|    \\/     M anipulation  |                                                 |
\*---------------------------------------------------------------------------*/
FoamFile
{
    version     2.0;
    format      ascii;
    class       volVectorField;
    location    "0.4";
    object      U;
}
// * * * * * * * * * * * * * * * * * * * * * * * * * * * * * * * * * * * * * //

dimensions      [0 1 -1 0 0 0 0];

internalField   nonuniform List<vector> 
400
(
(-4.44481271476e-08 2.08166817117e-17 0)
(-4.44481270782e-08 2.42861286637e-17 0)
(-4.44481271511e-08 5.20417042793e-17 0)
(-4.44481271789e-08 1.00613961607e-16 0)
(-4.44481272656e-08 1.07552855511e-16 0)
(-4.44481273003e-08 4.51028103754e-17 0)
(-4.44481272864e-08 6.24500451352e-17 0)
(-4.44481272829e-08 1.56125112838e-16 0)
(-4.44481272899e-08 1.80411241502e-16 0)
(-4.44481271442e-08 2.49800180541e-16 0)
(-4.44481270852e-08 1.90819582357e-16 0)
(-4.4448127165e-08 1.63064006742e-16 0)
(-4.44481271893e-08 2.70616862252e-16 0)
(-4.44481271511e-08 2.49800180541e-16 0)
(-4.44481271546e-08 2.39391839685e-16 0)
(-4.4448127224e-08 2.42861286637e-16 0)
(-4.44481272205e-08 1.49186218934e-16 0)
(-4.4448127217e-08 1.17961196366e-16 0)
(-4.44481272135e-08 7.6327832943e-17 0)
(-4.44481271789e-08 1.2490009027e-16 0)
(-1.10362863136e-07 6.93889390391e-17 0)
(-1.10362863123e-07 5.20417042793e-17 0)
(-1.10362863237e-07 1.07552855511e-16 0)
(-1.10362863428e-07 3.46944695195e-17 0)
(-1.10362863397e-07 3.46944695195e-17 0)
(-1.10362863442e-07 5.55111512313e-17 0)
(-1.10362863383e-07 -1.73472347598e-17 0)
(-1.10362863504e-07 7.97972798949e-17 0)
(-1.10362863411e-07 1.87350135406e-16 0)
(-1.10362863275e-07 3.64291929955e-16 0)
(-1.10362863293e-07 2.98372437868e-16 0)
(-1.10362863338e-07 4.12864187282e-16 0)
(-1.10362863171e-07 3.78169717763e-16 0)
(-1.10362863175e-07 3.95516952523e-16 0)
(-1.10362863251e-07 2.56739074445e-16 0)
(-1.10362863275e-07 3.78169717763e-16 0)
(-1.10362863279e-07 2.32452945781e-16 0)
(-1.10362863331e-07 2.671474153e-16 0)
(-1.10362863313e-07 2.42861286637e-16 0)
(-1.10362863341e-07 2.32452945781e-16 0)
(5.76737882591e-08 4.51028103754e-17 0)
(5.76737882035e-08 1.4224732503e-16 0)
(5.76737882382e-08 9.36750677028e-17 0)
(5.76737882521e-08 0 0)
(5.7673788207e-08 -1.38777878078e-17 0)
(5.76737880995e-08 3.46944695195e-18 0)
(5.76737881515e-08 -2.42861286637e-17 0)
(5.76737882348e-08 -3.81639164715e-17 0)
(5.76737881862e-08 1.2490009027e-16 0)
(5.76737882937e-08 2.42861286637e-16 0)
(5.76737883354e-08 2.25514051877e-16 0)
(5.76737883319e-08 2.28983498829e-16 0)
(5.76737882799e-08 1.52655665886e-16 0)
(5.76737882937e-08 7.2858385991e-17 0)
(5.76737883458e-08 1.35308431126e-16 0)
(5.76737883146e-08 2.56739074445e-16 0)
(5.76737883597e-08 2.8449465006e-16 0)
(5.76737882591e-08 3.29597460436e-16 0)
(5.76737882937e-08 1.90819582357e-16 0)
(5.76737882591e-08 2.39391839685e-16 0)
(8.65107734754e-07 -2.77555756156e-17 0)
(8.65107734702e-07 -3.46944695195e-18 0)
(8.65107734879e-07 9.71445146547e-17 0)
(8.65107734879e-07 7.6327832943e-17 0)
(8.65107734751e-07 0 0)
(8.65107734713e-07 4.16333634234e-17 0)
(8.65107734765e-07 6.93889390391e-17 0)
(8.65107734789e-07 -2.42861286637e-17 0)
(8.65107734751e-07 3.46944695195e-18 0)
(8.6510773482e-07 1.14491749414e-16 0)
(8.65107734949e-07 -1.73472347598e-17 0)
(8.65107734883e-07 4.51028103754e-17 0)
(8.65107734897e-07 6.24500451352e-17 0)
(8.65107734945e-07 6.24500451352e-17 0)
(8.65107734959e-07 2.77555756156e-17 0)
(8.65107734935e-07 1.38777878078e-16 0)
(8.6510773489e-07 2.04697370165e-16 0)
(8.65107734886e-07 1.2490009027e-16 0)
(8.65107734838e-07 1.49186218934e-16 0)
(8.65107734765e-07 3.46944695195e-17 0)
(2.69137240888e-06 6.59194920871e-17 0)
(2.69137240902e-06 3.46944695195e-17 0)
(2.69137240906e-06 1.21430643318e-16 0)
(2.69137240906e-06 -2.08166817117e-17 0)
(2.69137240902e-06 -8.32667268469e-17 0)
(2.69137240895e-06 1.17961196366e-16 0)
(2.69137240893e-06 2.01227923213e-16 0)
(2.69137240885e-06 5.55111512313e-17 0)
(2.69137240896e-06 7.97972798949e-17 0)
(2.69137240907e-06 1.28369537222e-16 0)
(2.69137240901e-06 -6.93889390391e-17 0)
(2.69137240912e-06 -1.73472347598e-17 0)
(2.6913724091e-06 2.77555756156e-17 0)
(2.69137240916e-06 -3.81639164715e-17 0)
(2.69137240916e-06 6.93889390391e-18 0)
(2.69137240919e-06 1.73472347598e-17 0)
(2.6913724091e-06 4.85722573274e-17 0)
(2.69137240893e-06 5.89805981832e-17 0)
(2.69137240892e-06 2.42861286637e-17 0)
(2.69137240889e-06 -1.2490009027e-16 0)
(4.73913455039e-06 -1.38777878078e-17 0)
(4.73913455031e-06 -8.67361737988e-17 0)
(4.73913455038e-06 3.46944695195e-18 0)
(4.73913455049e-06 -1.73472347598e-17 0)
(4.73913455037e-06 -4.85722573274e-17 0)
(4.73913455034e-06 2.671474153e-16 0)
(4.73913455029e-06 2.25514051877e-16 0)
(4.73913455033e-06 1.52655665886e-16 0)
(4.73913455032e-06 3.81639164715e-17 0)
(4.73913455029e-06 -4.16333634234e-17 0)
(4.73913455025e-06 -8.32667268469e-17 0)
(4.73913455035e-06 -1.11022302463e-16 0)
(4.7391345505e-06 -9.02056207508e-17 0)
(4.73913455057e-06 -1.56125112838e-16 0)
(4.73913455056e-06 -1.00613961607e-16 0)
(4.73913455045e-06 -1.31838984174e-16 0)
(4.7391345504e-06 -1.7694179455e-16 0)
(4.73913455038e-06 -9.02056207508e-17 0)
(4.73913455019e-06 -6.93889390391e-17 0)
(4.73913455005e-06 -1.04083408559e-16 0)
(2.5144018418e-06 2.08166817117e-17 0)
(2.51440184186e-06 -1.04083408559e-16 0)
(2.51440184177e-06 -2.77555756156e-17 0)
(2.51440184183e-06 6.93889390391e-18 0)
(2.51440184193e-06 1.73472347598e-17 0)
(2.51440184187e-06 1.31838984174e-16 0)
(2.51440184158e-06 9.36750677028e-17 0)
(2.51440184151e-06 -2.77555756156e-17 0)
(2.51440184155e-06 -1.28369537222e-16 0)
(2.51440184165e-06 -1.94289029309e-16 0)
(2.51440184168e-06 -9.71445146547e-17 0)
(2.51440184182e-06 -2.18575157973e-16 0)
(2.51440184182e-06 -2.63677968348e-16 0)
(2.51440184173e-06 -3.64291929955e-16 0)
(2.51440184166e-06 -2.56739074445e-16 0)
(2.51440184173e-06 -3.92047505571e-16 0)
(2.5144018418e-06 -3.92047505571e-16 0)
(2.51440184173e-06 -2.35922392733e-16 0)
(2.51440184153e-06 -2.28983498829e-16 0)
(2.51440184159e-06 -1.2490009027e-16 0)
(-1.51968435204e-05 6.59194920871e-17 0)
(-1.51968435206e-05 -9.36750677028e-17 0)
(-1.51968435205e-05 1.38777878078e-17 0)
(-1.51968435205e-05 3.46944695195e-18 0)
(-1.51968435206e-05 9.71445146547e-17 0)
(-1.51968435208e-05 1.38777878078e-17 0)
(-1.51968435209e-05 -9.36750677028e-17 0)
(-1.51968435209e-05 -6.93889390391e-17 0)
(-1.51968435207e-05 -5.89805981832e-17 0)
(-1.51968435207e-05 -4.51028103754e-17 0)
(-1.51968435206e-05 5.20417042793e-17 0)
(-1.51968435205e-05 -7.97972798949e-17 0)
(-1.51968435206e-05 -1.21430643318e-16 0)
(-1.51968435206e-05 -2.25514051877e-16 0)
(-1.51968435207e-05 -1.38777878078e-16 0)
(-1.51968435207e-05 -1.31838984174e-16 0)
(-1.51968435206e-05 -2.25514051877e-16 0)
(-1.51968435206e-05 -2.8449465006e-16 0)
(-1.51968435209e-05 -2.11636264069e-16 0)
(-1.51968435207e-05 -1.17961196366e-16 0)
(-6.5586594999e-05 -3.46944695195e-18 0)
(-6.55865949988e-05 -1.04083408559e-17 0)
(-6.55865949988e-05 1.28369537222e-16 0)
(-6.55865949989e-05 3.46944695195e-18 0)
(-6.55865949991e-05 6.59194920871e-17 0)
(-6.55865949993e-05 -2.08166817117e-16 0)
(-6.55865949993e-05 -2.18575157973e-16 0)
(-6.55865949994e-05 1.73472347598e-17 0)
(-6.55865949992e-05 -1.2490009027e-16 0)
(-6.55865949991e-05 -3.46944695195e-18 0)
(-6.5586594999e-05 1.07552855511e-16 0)
(-6.55865949991e-05 -2.08166817117e-17 0)
(-6.55865949992e-05 -1.73472347598e-16 0)
(-6.55865949991e-05 -1.73472347598e-16 0)
(-6.5586594999e-05 -1.21430643318e-16 0)
(-6.55865949991e-05 -3.46944695195e-18 0)
(-6.55865949992e-05 -3.46944695195e-17 0)
(-6.55865949992e-05 -1.4224732503e-16 0)
(-6.55865949991e-05 -1.38777878078e-16 0)
(-6.5586594999e-05 -4.51028103754e-17 0)
(-0.000157954805612 -1.38777878078e-16 0)
(-0.000157954805612 -9.71445146547e-17 0)
(-0.000157954805612 -6.93889390391e-18 0)
(-0.000157954805612 -8.32667268469e-17 0)
(-0.000157954805612 1.38777878078e-17 0)
(-0.000157954805613 -9.02056207508e-17 0)
(-0.000157954805613 -2.53269627493e-16 0)
(-0.000157954805613 -1.38777878078e-16 0)
(-0.000157954805612 0 0)
(-0.000157954805613 5.55111512313e-17 0)
(-0.000157954805612 7.97972798949e-17 0)
(-0.000157954805612 -5.89805981832e-17 0)
(-0.000157954805612 -1.80411241502e-16 0)
(-0.000157954805612 -3.1918911958e-16 0)
(-0.000157954805612 -1.73472347598e-16 0)
(-0.000157954805612 1.38777878078e-17 0)
(-0.000157954805613 -3.81639164715e-17 0)
(-0.000157954805612 1.38777878078e-17 0)
(-0.000157954805612 1.38777878078e-17 0)
(-0.000157954805612 -7.97972798949e-17 0)
(-0.00025378837503 -7.6327832943e-17 0)
(-0.00025378837503 -1.17961196366e-16 0)
(-0.00025378837503 -1.04083408559e-16 0)
(-0.00025378837503 -2.35922392733e-16 0)
(-0.00025378837503 -1.97758476261e-16 0)
(-0.00025378837503 -1.5959455979e-16 0)
(-0.00025378837503 -2.94902990916e-16 0)
(-0.00025378837503 -1.45716771982e-16 0)
(-0.00025378837503 2.77555756156e-17 0)
(-0.00025378837503 4.16333634234e-17 0)
(-0.00025378837503 9.36750677028e-17 0)
(-0.00025378837503 0 0)
(-0.00025378837503 -6.59194920871e-17 0)
(-0.00025378837503 -1.66533453694e-16 0)
(-0.00025378837503 -9.71445146547e-17 0)
(-0.00025378837503 -1.38777878078e-17 0)
(-0.00025378837503 2.42861286637e-17 0)
(-0.00025378837503 -2.77555756156e-17 0)
(-0.00025378837503 -1.49186218934e-16 0)
(-0.00025378837503 -6.59194920871e-17 0)
(-0.000192092166849 -1.04083408559e-17 0)
(-0.000192092166849 -1.17961196366e-16 0)
(-0.000192092166849 -1.5959455979e-16 0)
(-0.000192092166849 -3.0184188482e-16 0)
(-0.000192092166849 -3.50414142147e-16 0)
(-0.000192092166849 -2.81025203108e-16 0)
(-0.000192092166849 -2.04697370165e-16 0)
(-0.000192092166849 -1.07552855511e-16 0)
(-0.000192092166849 -5.55111512313e-17 0)
(-0.000192092166849 -7.97972798949e-17 0)
(-0.000192092166849 -5.55111512313e-17 0)
(-0.000192092166849 -4.51028103754e-17 0)
(-0.000192092166849 -6.93889390391e-18 0)
(-0.00019209216685 -1.49186218934e-16 0)
(-0.00019209216685 -4.16333634234e-17 0)
(-0.00019209216685 0 0)
(-0.00019209216685 6.93889390391e-17 0)
(-0.00019209216685 -1.11022302463e-16 0)
(-0.000192092166849 -2.39391839685e-16 0)
(-0.000192092166849 -1.83880688454e-16 0)
(0.00041077850669 -1.90819582357e-16 0)
(0.000410778506689 -2.32452945781e-16 0)
(0.00041077850669 -1.5959455979e-16 0)
(0.00041077850669 -2.671474153e-16 0)
(0.00041077850669 -2.87964097012e-16 0)
(0.00041077850669 -3.29597460436e-16 0)
(0.00041077850669 -1.73472347598e-16 0)
(0.00041077850669 -1.83880688454e-16 0)
(0.00041077850669 -1.2490009027e-16 0)
(0.00041077850669 -3.05311331772e-16 0)
(0.00041077850669 -2.28983498829e-16 0)
(0.00041077850669 -6.59194920871e-17 0)
(0.00041077850669 -1.56125112838e-16 0)
(0.000410778506689 -1.28369537222e-16 0)
(0.00041077850669 -1.31838984174e-16 0)
(0.00041077850669 -1.07552855511e-16 0)
(0.000410778506689 3.46944695195e-17 0)
(0.000410778506689 -5.89805981832e-17 0)
(0.000410778506689 -2.39391839685e-16 0)
(0.00041077850669 -1.63064006742e-16 0)
(0.00224724705661 -2.35922392733e-16 0)
(0.00224724705661 -1.14491749414e-16 0)
(0.00224724705661 -1.04083408559e-16 0)
(0.00224724705661 -3.12250225676e-17 0)
(0.00224724705661 -2.42861286637e-17 0)
(0.00224724705661 -1.07552855511e-16 0)
(0.00224724705661 -1.4224732503e-16 0)
(0.00224724705661 -2.04697370165e-16 0)
(0.00224724705661 -9.36750677028e-17 0)
(0.00224724705661 -1.14491749414e-16 0)
(0.00224724705661 -6.93889390391e-18 0)
(0.00224724705661 -6.93889390391e-18 0)
(0.00224724705661 -1.63064006742e-16 0)
(0.00224724705661 -9.36750677028e-17 0)
(0.00224724705661 1.00613961607e-16 0)
(0.00224724705661 4.85722573274e-17 0)
(0.00224724705661 1.38777878078e-17 0)
(0.00224724705661 -2.08166817117e-17 0)
(0.00224724705661 -1.94289029309e-16 0)
(0.00224724705661 -2.18575157973e-16 0)
(0.00632326301266 -1.83880688454e-16 0)
(0.00632326301266 -5.89805981832e-17 0)
(0.00632326301266 -1.87350135406e-16 0)
(0.00632326301266 2.42861286637e-17 0)
(0.00632326301266 -2.08166817117e-17 0)
(0.00632326301266 -6.24500451352e-17 0)
(0.00632326301266 -1.04083408559e-16 0)
(0.00632326301266 -1.11022302463e-16 0)
(0.00632326301266 2.42861286637e-17 0)
(0.00632326301266 7.2858385991e-17 0)
(0.00632326301266 -1.38777878078e-17 0)
(0.00632326301266 2.42861286637e-17 0)
(0.00632326301266 -9.02056207508e-17 0)
(0.00632326301266 -1.52655665886e-16 0)
(0.00632326301266 2.42861286637e-17 0)
(0.00632326301266 -6.93889390391e-18 0)
(0.00632326301266 -1.00613961607e-16 0)
(0.00632326301266 -1.49186218934e-16 0)
(0.00632326301266 -1.04083408559e-16 0)
(0.00632326301266 -1.35308431126e-16 0)
(0.0138145353445 -1.87350135406e-16 0)
(0.0138145353445 -1.49186218934e-16 0)
(0.0138145353445 -3.05311331772e-16 0)
(0.0138145353445 -1.45716771982e-16 0)
(0.0138145353445 -1.00613961607e-16 0)
(0.0138145353445 -3.81639164715e-17 0)
(0.0138145353445 -2.77555756156e-17 0)
(0.0138145353445 8.67361737988e-17 0)
(0.0138145353445 1.28369537222e-16 0)
(0.0138145353445 2.08166817117e-17 0)
(0.0138145353445 4.85722573274e-17 0)
(0.0138145353445 -7.2858385991e-17 0)
(0.0138145353445 -2.77555756156e-17 0)
(0.0138145353445 -7.97972798949e-17 0)
(0.0138145353445 -1.38777878078e-16 0)
(0.0138145353445 -5.55111512313e-17 0)
(0.0138145353445 -5.55111512313e-17 0)
(0.0138145353445 -3.12250225676e-17 0)
(0.0138145353445 -2.77555756156e-17 0)
(0.0138145353445 -1.38777878078e-17 0)
(0.0257553175963 -1.52655665886e-16 0)
(0.0257553175963 -1.49186218934e-16 0)
(0.0257553175963 -1.31838984174e-16 0)
(0.0257553175963 -1.52655665886e-16 0)
(0.0257553175963 6.24500451352e-17 0)
(0.0257553175963 2.42861286637e-17 0)
(0.0257553175963 3.12250225676e-17 0)
(0.0257553175963 1.5959455979e-16 0)
(0.0257553175963 1.83880688454e-16 0)
(0.0257553175963 1.04083408559e-16 0)
(0.0257553175963 -3.46944695195e-18 0)
(0.0257553175963 1.73472347598e-17 0)
(0.0257553175963 -8.32667268469e-17 0)
(0.0257553175963 -1.07552855511e-16 0)
(0.0257553175963 -2.15105711021e-16 0)
(0.0257553175963 -1.94289029309e-16 0)
(0.0257553175963 -5.55111512313e-17 0)
(0.0257553175963 -1.28369537222e-16 0)
(0.0257553175963 -4.85722573274e-17 0)
(0.0257553175963 1.11022302463e-16 0)
(0.0426298272574 -1.83880688454e-16 0)
(0.0426298272574 -1.73472347598e-17 0)
(0.0426298272574 -8.32667268469e-17 0)
(0.0426298272574 -3.26128013484e-16 0)
(0.0426298272574 -1.28369537222e-16 0)
(0.0426298272574 -3.46944695195e-17 0)
(0.0426298272574 -5.20417042793e-17 0)
(0.0426298272574 1.14491749414e-16 0)
(0.0426298272574 1.35308431126e-16 0)
(0.0426298272574 -1.38777878078e-17 0)
(0.0426298272574 -5.20417042793e-17 0)
(0.0426298272574 6.93889390391e-17 0)
(0.0426298272574 -9.36750677028e-17 0)
(0.0426298272574 -2.74086309204e-16 0)
(0.0426298272574 -2.87964097012e-16 0)
(0.0426298272574 -3.3653635434e-16 0)
(0.0426298272574 -2.74086309204e-16 0)
(0.0426298272574 -1.07552855511e-16 0)
(0.0426298272574 -1.97758476261e-16 0)
(0.0426298272574 0 0)
(0.0640069856897 -5.55111512313e-17 0)
(0.0640069856897 2.77555756156e-17 0)
(0.0640069856897 -2.08166817117e-17 0)
(0.0640069856897 -1.52655665886e-16 0)
(0.0640069856897 -7.6327832943e-17 0)
(0.0640069856897 4.16333634234e-17 0)
(0.0640069856897 -4.16333634234e-17 0)
(0.0640069856897 2.08166817117e-17 0)
(0.0640069856897 9.71445146547e-17 0)
(0.0640069856897 -1.38777878078e-17 0)
(0.0640069856897 -5.55111512313e-17 0)
(0.0640069856897 -6.93889390391e-18 0)
(0.0640069856897 -2.08166817117e-17 0)
(0.0640069856897 -7.6327832943e-17 0)
(0.0640069856897 -1.80411241502e-16 0)
(0.0640069856897 -2.98372437868e-16 0)
(0.0640069856897 -1.87350135406e-16 0)
(0.0640069856897 -4.85722573274e-17 0)
(0.0640069856897 4.16333634234e-17 0)
(0.0640069856897 7.6327832943e-17 0)
(0.0885506286668 6.93889390391e-17 0)
(0.0885506286668 1.04083408559e-16 0)
(0.0885506286668 2.08166817117e-17 0)
(0.0885506286668 -6.93889390391e-18 0)
(0.0885506286668 3.46944695195e-17 0)
(0.0885506286668 2.77555756156e-17 0)
(0.0885506286668 2.77555756156e-17 0)
(0.0885506286668 -2.77555756156e-17 0)
(0.0885506286668 1.17961196366e-16 0)
(0.0885506286668 1.2490009027e-16 0)
(0.0885506286668 1.04083408559e-16 0)
(0.0885506286668 -6.24500451352e-17 0)
(0.0885506286668 -8.32667268469e-17 0)
(0.0885506286668 6.93889390391e-17 0)
(0.0885506286668 1.38777878078e-17 0)
(0.0885506286668 -6.93889390391e-17 0)
(0.0885506286668 -3.46944695195e-17 0)
(0.0885506286668 -1.38777878078e-17 0)
(0.0885506286668 7.6327832943e-17 0)
(0.0885506286668 6.93889390391e-17 0)
)
;

boundaryField
{
    top
    {
        type            fixedValue;
        value           uniform (0.1 0 0);
    }
    bottom
    {
        type            fixedValue;
        value           uniform (0 0 0);
    }
    left
    {
        type            cyclic;
    }
    right
    {
        type            cyclic;
    }
    frontAndBack
    {
        type            empty;
    }
}


// ************************************************************************* //
