/*--------------------------------*- C++ -*----------------------------------*\
| =========                 |                                                 |
| \\      /  F ield         | OpenFOAM: The Open Source CFD Toolbox           |
|  \\    /   O peration     | Version:  2.4.0                                 |
|   \\  /    A nd           | Web:      www.OpenFOAM.org                      |
|    \\/     M anipulation  |                                                 |
\*---------------------------------------------------------------------------*/
FoamFile
{
    version     2.0;
    format      ascii;
    class       volScalarField;
    location    "0.1";
    object      rho;
}
// * * * * * * * * * * * * * * * * * * * * * * * * * * * * * * * * * * * * * //

dimensions      [1 -3 0 0 0 0 0];

internalField   nonuniform List<scalar> 
400
(
0.99999999828
1.00000000061
1.00000000001
0.999999999984
1
1
1
1
1
1
1
1
1
1
0.999999999999
1
1.00000000008
0.999999999288
0.999999998864
1.00000003146
1.00000000653
0.999999999733
0.999999999815
1.00000000003
0.999999999997
0.999999999999
0.999999999997
1
0.999999999997
1
0.999999999997
1
0.999999999997
1
1
0.999999999991
0.999999999949
1.00000000061
0.999999998768
0.999999989108
0.999999989094
1.0000000022
1.00000000027
0.999999999913
1.00000000009
0.999999999995
1.00000000008
0.999999999994
1.00000000008
0.999999999994
1.00000000008
0.999999999994
1.00000000008
0.999999999995
1.00000000008
0.999999999997
1.00000000038
0.999999997542
0.999999997192
1.00000010809
1.00000000097
1.00000000027
1.00000000106
1.00000000025
1.00000000105
1.00000000025
1.00000000105
1.00000000025
1.00000000105
1.00000000023
1.00000000108
1.00000000025
1.00000000105
1.00000000025
1.00000000105
1.00000000024
1.00000000103
1.0000000005
1.00000000026
0.999999996246
1.00000000658
1.00000000304
1.00000000059
1.00000000381
1.00000000072
1.00000000377
1.00000000072
1.00000000377
1.00000000068
1.00000000363
1.00000000151
1.00000000385
1.00000000072
1.00000000377
1.00000000072
1.00000000377
1.0000000006
1.00000000476
1.00000000181
0.999999960644
0.999999987965
1.0000000058
0.999999998861
1.00000000532
0.999999998461
1.00000000537
0.999999998461
1.00000000536
0.999999998416
1.00000000572
0.999999998932
1.00000000566
0.999999998538
1.00000000537
0.999999998458
1.00000000538
0.999999998522
1.00000000455
1.00000000015
1.00000002006
1.00000002083
0.999999980854
1.00000001336
0.99999998487
1.00000001334
0.999999984712
1.00000001335
0.999999984809
1.00000001375
0.999999986634
1.000000008
0.999999984722
1.00000001379
0.999999984763
1.00000001336
0.999999984709
1.00000001296
0.999999988073
1.00000001742
0.999999842601
1.00000001174
1.00000000556
0.999999984155
1.00000000616
0.999999985769
1.00000000591
0.999999985719
1.0000000062
0.999999986555
1.00000000167
0.999999986161
1.00000000545
0.99999998588
1.00000000627
0.999999985766
1.00000000592
0.999999985766
1.00000000629
0.999999988201
0.999999989282
0.999999945121
1.00000001483
0.999999969047
1.0000000075
0.999999969796
1.00000000842
0.999999970107
1.00000000714
0.999999968995
1.00000000835
0.999999977988
1.00000000852
0.999999968661
1.00000000841
0.999999969881
1.00000000842
0.999999970113
1.00000000514
0.999999976195
1.00000006123
0.999999786716
0.999999986815
1.00000002549
0.999999990337
1.00000001339
0.999999992586
1.00000001258
0.999999995074
1.00000001742
0.999999975371
0.999999998879
0.9999999867
1.00000001121
0.999999991489
1.0000000137
0.999999992469
1.00000001114
1.00000001021
1.00000002505
0.999999610514
1.00000002247
1.00000000385
1.0000000363
0.999999996266
1.00000003746
0.999999995703
1.000000038
0.999999997107
1.00000003643
0.999999995195
1.00000001331
0.99999999855
1.000000038
0.999999994628
1.00000003726
0.999999995702
1.00000003768
0.999999996236
1.00000003689
0.999999963949
0.999999956208
1.00000003185
1.00000002692
1.00000001214
1.00000002584
1.00000001274
1.00000002799
1.00000001097
1.00000002009
1.00000001738
1.00000004175
1.00000001812
1.0000000255
1.00000001136
1.0000000257
1.00000001278
1.0000000285
0.999999997388
1.00000000683
1.00000038701
0.99999995452
1.00000000213
1.00000001377
1.00000000145
1.00000001053
1.00000000221
1.00000001066
1.0000000046
1.0000000093
0.999999996718
1.00000001425
1.00000000297
1.00000000904
1.0000000013
1.00000001054
1.00000000221
1.00000001055
1.00000000741
1.00000000014
0.999999909306
0.999999993212
1.00000001449
0.999999976417
1.00000001355
0.99999997745
1.00000001362
0.999999977372
1.00000001388
0.999999979156
1.00000000772
0.999999983639
1.00000001172
0.999999976068
1.00000001357
0.999999977448
1.00000001363
0.999999977399
1.00000001349
0.999999980182
1.0000000067
1.00000000115
0.99999998487
0.999999999073
0.999999985345
0.99999999922
0.999999985336
0.999999999209
0.999999985237
0.99999999949
0.999999986198
0.999999996996
0.999999984468
0.999999999126
0.999999985342
0.999999999219
0.999999985335
0.999999999218
0.999999985241
0.999999999305
0.999999988846
0.999999992265
0.999999991888
0.999999997715
0.99999999181
0.999999997573
0.999999991832
0.999999997573
0.999999991825
0.999999997526
0.999999992742
0.999999995926
0.999999991709
0.999999997581
0.999999991831
0.999999997573
0.999999991833
0.999999997591
0.999999991641
0.999999997689
0.999999996526
1.00000000175
0.99999999881
0.999999997618
0.999999999538
0.999999997721
0.999999999507
0.999999997722
0.999999999508
0.99999999772
0.999999999527
0.999999997584
0.999999999507
0.999999997722
0.999999999508
0.999999997724
0.999999999506
0.999999997622
1.00000000038
0.999999998615
0.999999962453
0.999999994783
1.00000000019
1
0.999999999994
0.999999999829
1.00000000002
0.999999999829
1.00000000002
0.999999999829
1.00000000002
0.999999999831
1.00000000002
0.999999999829
1.00000000002
0.999999999827
1.00000000002
0.999999999865
0.999999999578
1.00000000075
1.00000000733
1.00000000834
0.999999998456
0.999999999823
1.00000000007
1.00000000001
0.999999999999
1.00000000001
1
1.00000000001
1
1.00000000001
1
1.00000000001
0.999999999999
1.00000000001
1
0.999999999859
1.00000000127
1.00000000068
0.999999948733
0.999999992146
1.00000000072
1.00000000027
0.999999999946
0.999999999999
1
1
1
1
1
1
1
1
1
1
1
1.00000000001
0.999999999825
1.00000000049
1.00000000352
)
;

boundaryField
{
    top
    {
        type            bounceBack;
        value           uniform 1;
    }
    bottom
    {
        type            bounceBack;
        value           uniform 1;
    }
    left
    {
        type            cyclic;
    }
    right
    {
        type            cyclic;
    }
    frontAndBack
    {
        type            empty;
    }
}


// ************************************************************************* //
