/*--------------------------------*- C++ -*----------------------------------*\
| =========                 |                                                 |
| \\      /  F ield         | OpenFOAM: The Open Source CFD Toolbox           |
|  \\    /   O peration     | Version:  2.4.0                                 |
|   \\  /    A nd           | Web:      www.OpenFOAM.org                      |
|    \\/     M anipulation  |                                                 |
\*---------------------------------------------------------------------------*/
FoamFile
{
    version     2.0;
    format      ascii;
    class       volVectorField;
    location    "0.1";
    object      U;
}
// * * * * * * * * * * * * * * * * * * * * * * * * * * * * * * * * * * * * * //

dimensions      [0 1 -1 0 0 0 0];

internalField   nonuniform List<vector> 
400
(
(-8.04969484815e-10 1.08897055102e-09 0)
(6.12635528737e-10 4.3095554876e-11 0)
(-5.55776327729e-11 -3.59817869939e-11 0)
(-1.82194537238e-13 3.28076454897e-12 0)
(1.01653407913e-12 2.02636518676e-13 0)
(-1.75411768444e-13 -6.96595559013e-14 0)
(-4.80865347541e-15 1.30347121985e-14 0)
(4.38954428361e-14 -1.67921232475e-15 0)
(-3.6033676043e-14 4.51201576102e-14 0)
(-1.69135538908e-14 -4.14251966063e-14 0)
(3.13638004457e-14 1.93976779084e-14 0)
(-2.42167397246e-14 9.20444276353e-15 0)
(2.27387553231e-14 -1.89258331229e-14 0)
(-1.05821601482e-13 -6.76889100326e-15 0)
(-4.02955446788e-13 6.54344634033e-13 0)
(9.62882898414e-12 -3.05998629213e-12 0)
(-5.05515143595e-11 -6.4140637241e-12 0)
(-1.97996098824e-11 1.80335465439e-10 0)
(2.73485055746e-09 -8.1592093244e-10 0)
(-2.6428721414e-08 -1.89479438327e-09 0)
(4.24482143191e-09 -1.97643318823e-09 0)
(-6.24808809025e-10 -7.25944166085e-11 0)
(8.36185634778e-12 6.24576328272e-11 0)
(1.29495268671e-11 -6.79292039267e-12 0)
(-2.18658424701e-12 1.37280117829e-12 0)
(-4.72469285917e-14 2.30513524935e-13 0)
(-1.21395948849e-14 1.75938430492e-12 0)
(-4.55434301383e-14 -1.33920652345e-15 0)
(-5.54452317393e-14 1.75426687066e-12 0)
(-5.05637198778e-14 3.2061159283e-14 0)
(-3.8569841765e-14 1.77799094892e-12 0)
(-5.89840676302e-14 -1.36279876273e-14 0)
(-7.81041897826e-14 1.81454851145e-12 0)
(2.486517936e-13 3.12389003554e-14 0)
(-7.16836312531e-13 7.66831043109e-13 0)
(-5.89352178176e-12 4.69567093546e-12 0)
(5.02604451139e-11 1.31072271099e-11 0)
(-8.07252285356e-11 -2.72824811187e-10 0)
(-1.02362398892e-09 1.31985275996e-09 0)
(6.83173676813e-09 3.72011211655e-09 0)
(-7.46541796599e-09 -5.20266450183e-10 0)
(2.69647820146e-09 -9.87458064534e-11 0)
(-1.85672817349e-10 3.47718034828e-11 0)
(-2.64151998908e-11 -2.03136119055e-14 0)
(8.22766854574e-12 4.24391424743e-12 0)
(-1.06029768299e-12 2.01746258589e-12 0)
(-4.45841280524e-13 4.63991692252e-12 0)
(-2.80928058595e-13 1.90434126802e-12 0)
(-3.54719725785e-13 4.6514354864e-12 0)
(-2.89653717679e-13 1.90053528472e-12 0)
(-8.89236600948e-13 5.17792059187e-12 0)
(-2.93199492464e-13 1.90627374997e-12 0)
(-2.27502044962e-13 4.65238264541e-12 0)
(-1.16100878911e-12 1.91435756137e-12 0)
(-4.46150061306e-13 4.37379646357e-12 0)
(3.73108766106e-11 3.24668070207e-12 0)
(-2.3103036142e-10 6.83732584178e-12 0)
(1.50591831042e-11 -6.18964846178e-11 0)
(9.64438284722e-09 2.19598360946e-10 0)
(-8.31070536481e-08 6.83644320673e-10 0)
(-1.1885227617e-09 3.00875788923e-09 0)
(7.73921551633e-11 1.30232415094e-10 0)
(1.58688340078e-12 -8.08308457506e-10 0)
(-6.41658254149e-12 2.13472676982e-11 0)
(-2.36323460553e-12 -6.8927422031e-10 0)
(-3.66043306686e-12 7.91304868657e-12 0)
(-3.00658803094e-12 -6.90096673526e-10 0)
(-3.61632251832e-12 8.37904051491e-12 0)
(-2.98752341996e-12 -6.90139559359e-10 0)
(-1.14527137747e-11 2.987124436e-13 0)
(-1.13435996585e-11 -6.86167826679e-10 0)
(-4.20720402855e-12 7.5736465691e-12 0)
(-2.99214125385e-12 -6.90182486827e-10 0)
(-3.51133358414e-12 8.29844179279e-12 0)
(-3.39421893013e-12 -6.88325333508e-10 0)
(-5.06482355932e-12 -1.30569166558e-13 0)
(1.55897447568e-11 -7.11321455862e-10 0)
(-4.8056284622e-11 5.30933945848e-10 0)
(-2.26218963641e-10 -3.27180420864e-09 0)
(1.58313214868e-09 -6.8045446304e-09 0)
(3.65176111252e-09 -3.80865409273e-09 0)
(-1.17358833406e-09 -1.32756129297e-09 0)
(3.57781651317e-11 -2.59504702296e-09 0)
(-1.58336121388e-11 -1.23570395112e-09 0)
(-3.94879025028e-11 -2.64638308299e-09 0)
(-3.18072580962e-11 -1.2313194376e-09 0)
(-3.48401481025e-11 -2.64575950541e-09 0)
(-3.21007316738e-11 -1.23152093613e-09 0)
(-2.73283791243e-11 -2.65012876393e-09 0)
(-5.39372398954e-11 -1.15797276903e-09 0)
(1.49211635877e-10 -2.81956253059e-09 0)
(-1.05772126761e-11 -1.24450384934e-09 0)
(-3.27897847527e-11 -2.64441105628e-09 0)
(-3.17626028446e-11 -1.23152090838e-09 0)
(-3.48478329274e-11 -2.64639408807e-09 0)
(-4.66382937453e-11 -1.2278336114e-09 0)
(5.30811644319e-11 -2.64182139547e-09 0)
(-2.9796422132e-11 -1.39460950803e-09 0)
(-3.83065152168e-09 -2.14511638272e-09 0)
(3.29607476517e-08 5.59345508609e-10 0)
(-8.24995203963e-09 7.17809251239e-09 0)
(1.07246935016e-09 -6.7341567834e-09 0)
(-1.72724026251e-10 5.4638079054e-09 0)
(-2.38920864459e-10 -6.67120342566e-09 0)
(-1.598489156e-10 5.57595856804e-09 0)
(-2.10369606021e-10 -6.67641238359e-09 0)
(-1.65105592646e-10 5.57589713801e-09 0)
(-2.30517600298e-10 -6.65650362854e-09 0)
(-4.88216377822e-11 5.56897596282e-09 0)
(-5.16642274615e-10 -6.1743178515e-09 0)
(-3.27739731537e-10 4.3325755252e-09 0)
(1.73660078389e-11 -6.90786478964e-09 0)
(-1.62902198913e-10 5.52308954587e-09 0)
(-2.11975182795e-10 -6.67851857727e-09 0)
(-1.6413093826e-10 5.57710999077e-09 0)
(-2.03494851818e-10 -6.68204050646e-09 0)
(-2.25830864759e-10 5.56215821446e-09 0)
(-1.31017474051e-10 -6.31209626482e-09 0)
(1.20215079539e-09 3.86187673101e-09 0)
(-9.37967744708e-09 -1.11090302643e-08 0)
(2.8749725959e-09 2.73351008701e-09 0)
(-4.03416040248e-09 7.81478889283e-09 0)
(-9.5933726e-10 -1.48111348289e-09 0)
(-8.40848646498e-10 6.58441594551e-09 0)
(-1.29571302304e-09 -1.16423297226e-09 0)
(-9.23859287929e-10 6.56957306246e-09 0)
(-1.27231034077e-09 -1.19415699691e-09 0)
(-8.95484148364e-10 6.61751254133e-09 0)
(-1.21420887299e-09 -1.30481500545e-09 0)
(-1.53199758748e-09 5.18155596195e-09 0)
(-3.03835206646e-09 2.57847831301e-10 0)
(7.5023863269e-11 6.49332773867e-09 0)
(-1.06911724178e-09 -1.42881127527e-09 0)
(-8.72675139903e-10 6.58343563662e-09 0)
(-1.28501583003e-09 -1.16461722736e-09 0)
(-9.74039166313e-10 6.56912960123e-09 0)
(-9.71695072911e-10 -1.19459237133e-09 0)
(-9.08689908471e-10 6.64305936245e-09 0)
(-1.40751763554e-08 -1.6967583466e-09 0)
(1.07371204091e-07 3.31953382698e-09 0)
(1.64536441774e-08 -3.66950339796e-08 0)
(-1.10167275244e-08 1.89248080111e-08 0)
(-5.76633776261e-09 -3.23922615603e-08 0)
(-6.25850820433e-09 1.86328662357e-08 0)
(-5.31802923508e-09 -3.31310121799e-08 0)
(-6.41714287289e-09 1.87309527961e-08 0)
(-5.4114389472e-09 -3.30976733633e-08 0)
(-5.99936636229e-09 1.81591629842e-08 0)
(-7.12122202733e-09 -3.2961131764e-08 0)
(-4.4556322134e-09 1.75755449484e-08 0)
(-4.28614678505e-09 -2.70921506065e-08 0)
(-8.67962095376e-09 1.98830871411e-08 0)
(-4.91279791846e-09 -3.3180676231e-08 0)
(-6.24605623375e-09 1.85892806267e-08 0)
(-5.32040254501e-09 -3.31322872954e-08 0)
(-6.41106588327e-09 1.87387962683e-08 0)
(-5.45902145848e-09 -3.30777419646e-08 0)
(-6.05447008164e-09 1.75140428697e-08 0)
(-7.36806977256e-09 -2.97009201088e-08 0)
(1.02328995507e-08 3.11903606705e-08 0)
(-6.57455554163e-08 8.40043113881e-08 0)
(-1.33968747372e-08 -4.93092376974e-08 0)
(-3.54515051943e-08 9.7070966293e-08 0)
(-2.04383909201e-08 -3.68656342132e-08 0)
(-3.38995846433e-08 9.42547818668e-08 0)
(-1.99731701232e-08 -3.70156703177e-08 0)
(-3.42110213449e-08 9.41719984819e-08 0)
(-2.04882092398e-08 -3.55352198428e-08 0)
(-3.33612338037e-08 9.20220492666e-08 0)
(-1.80554615791e-08 -3.83826587062e-08 0)
(-3.09927742346e-08 8.87063125517e-08 0)
(-2.28834202032e-08 -3.73444368112e-08 0)
(-3.46265347672e-08 9.54199054247e-08 0)
(-1.98298889598e-08 -3.70972230542e-08 0)
(-3.39001266513e-08 9.42550406691e-08 0)
(-1.99722275542e-08 -3.70181306101e-08 0)
(-3.42506855692e-08 9.42213566323e-08 0)
(-2.06250535208e-08 -3.35847450206e-08 0)
(-2.84096535634e-08 7.9316573317e-08 0)
(-5.02374929376e-08 -4.96293119658e-08 0)
(-3.05719243084e-07 -7.68952010195e-08 0)
(-9.83686025997e-08 1.70761010016e-08 0)
(-2.75037392721e-08 -7.6207839779e-08 0)
(-1.34781009393e-07 1.67493603627e-08 0)
(-2.9187260103e-08 -7.44582217847e-08 0)
(-1.33153999946e-07 1.64002150056e-08 0)
(-2.82513242507e-08 -7.47044917944e-08 0)
(-1.32421624687e-07 1.67777020396e-08 0)
(-4.03980227158e-08 -7.44913933557e-08 0)
(-1.05488904025e-07 1.31705239058e-08 0)
(-2.85701183934e-08 -8.52752685637e-08 0)
(-1.30284601106e-07 1.5438321136e-08 0)
(-3.11710505265e-08 -7.39898108302e-08 0)
(-1.33186464564e-07 1.69473905207e-08 0)
(-2.91589808439e-08 -7.44605311155e-08 0)
(-1.33189954233e-07 1.63996052731e-08 0)
(-2.69921199952e-08 -7.47164727245e-08 0)
(-1.34816756947e-07 1.69958862574e-08 0)
(-8.4529999457e-08 -7.28955762926e-08 0)
(2.77259747715e-07 1.57050784984e-08 0)
(-3.14698009647e-07 -9.83147353155e-08 0)
(-4.19662177874e-07 2.38314900576e-08 0)
(-3.01105376041e-07 -8.81230270145e-08 0)
(-4.16768943813e-07 1.51359014395e-08 0)
(-3.02982043743e-07 -8.61376978386e-08 0)
(-4.1748873271e-07 1.52806545852e-08 0)
(-3.03012578132e-07 -8.60544774861e-08 0)
(-4.16806177706e-07 1.18483667422e-08 0)
(-3.01796106794e-07 -8.20881114824e-08 0)
(-4.21569572795e-07 2.59912022911e-08 0)
(-3.18834732423e-07 -7.95126482151e-08 0)
(-4.07541232623e-07 1.53316783068e-08 0)
(-3.033077141e-07 -8.57446787037e-08 0)
(-4.18191862928e-07 1.53764987437e-08 0)
(-3.02981953728e-07 -8.61380070706e-08 0)
(-4.17484471723e-07 1.52814388571e-08 0)
(-3.0295404118e-07 -8.6147794816e-08 0)
(-4.15352156174e-07 9.60901555694e-09 0)
(-3.06293283028e-07 -5.88047096595e-08 0)
(-3.95594799806e-07 5.92430882219e-08 0)
(-1.11968653525e-06 1.18433090182e-07 0)
(-1.01555153873e-06 -3.48618347384e-08 0)
(-1.08283199531e-06 1.25338204373e-07 0)
(-1.03013779227e-06 -3.31386885053e-08 0)
(-1.08148074683e-06 1.23285024893e-07 0)
(-1.02984591804e-06 -3.2902781774e-08 0)
(-1.08299893028e-06 1.23558457831e-07 0)
(-1.03235398858e-06 -3.25503056769e-08 0)
(-1.06628056731e-06 1.2199123192e-07 0)
(-1.05188781785e-06 -3.30877540929e-08 0)
(-1.09198911655e-06 1.2340115474e-07 0)
(-1.02429534581e-06 -3.04766713181e-08 0)
(-1.08319332423e-06 1.23665816772e-07 0)
(-1.03089012937e-06 -3.32820153901e-08 0)
(-1.08149189483e-06 1.23286405674e-07 0)
(-1.029829961e-06 -3.29058531075e-08 0)
(-1.08346544514e-06 1.23546456271e-07 0)
(-1.0290633832e-06 -3.2452725439e-08 0)
(-1.02296186427e-06 1.19255338067e-07 0)
(-1.40194869006e-06 -4.36970871142e-08 0)
(-1.80385738755e-06 -2.2218165534e-08 0)
(-1.72512423715e-06 2.45368390603e-08 0)
(-1.73585367264e-06 -4.25780674642e-08 0)
(-1.73906516926e-06 2.50299770963e-08 0)
(-1.73498270162e-06 -4.21029003161e-08 0)
(-1.73858181235e-06 2.50690415267e-08 0)
(-1.73487077694e-06 -4.20423389117e-08 0)
(-1.73964304982e-06 2.72959575179e-08 0)
(-1.73545636254e-06 -4.43556326707e-08 0)
(-1.73836225582e-06 1.53752108772e-08 0)
(-1.73586346943e-06 -3.59398874666e-08 0)
(-1.73459348242e-06 2.54212718211e-08 0)
(-1.73766582815e-06 -4.33182071157e-08 0)
(-1.73906518447e-06 2.49358370086e-08 0)
(-1.73497834512e-06 -4.21027165081e-08 0)
(-1.73860122058e-06 2.50692602407e-08 0)
(-1.73476024068e-06 -4.20218038741e-08 0)
(-1.7400523331e-06 2.79149668429e-08 0)
(-1.74068856282e-06 -5.45407772378e-08 0)
(-1.66331483186e-06 -3.2010163467e-09 0)
(1.16197332717e-05 2.43484387778e-09 0)
(1.16075186471e-05 6.3670572509e-09 0)
(1.16077715751e-05 -3.49874367943e-09 0)
(1.16091791317e-05 4.00798942764e-09 0)
(1.16080357975e-05 -2.63033864514e-09 0)
(1.16092091336e-05 3.96984560298e-09 0)
(1.16080805922e-05 -2.68900744219e-09 0)
(1.16089957083e-05 3.79369311944e-09 0)
(1.16058618272e-05 -1.11211906587e-09 0)
(1.16114818227e-05 5.63490930116e-09 0)
(1.16103119349e-05 -5.46688335497e-10 0)
(1.16066829591e-05 2.72049656348e-09 0)
(1.16075712104e-05 -3.48795289547e-09 0)
(1.16091890382e-05 4.01212906753e-09 0)
(1.16080333962e-05 -2.63107560774e-09 0)
(1.16092131037e-05 3.97299631873e-09 0)
(1.16080570405e-05 -2.68129857368e-09 0)
(1.16090164181e-05 3.5716926469e-09 0)
(1.16065200804e-05 8.51605428067e-10 0)
(1.16160233156e-05 6.99337526252e-09 0)
(4.29100841715e-05 4.06232408008e-09 0)
(4.29054201122e-05 -1.49488640848e-08 0)
(4.29065303235e-05 6.91197956803e-09 0)
(4.2906376825e-05 -1.47161083602e-08 0)
(4.29065304718e-05 6.91846213498e-09 0)
(4.29063731333e-05 -1.47219807949e-08 0)
(4.29065292435e-05 6.91140200479e-09 0)
(4.29064518995e-05 -1.47341650467e-08 0)
(4.29064623735e-05 6.94370107947e-09 0)
(4.29069861476e-05 -1.33721993936e-08 0)
(4.2906425625e-05 3.89385142314e-09 0)
(4.29054496302e-05 -1.51243932993e-08 0)
(4.29065396052e-05 6.90606575308e-09 0)
(4.29063730663e-05 -1.4716119688e-08 0)
(4.29065311253e-05 6.91875041827e-09 0)
(4.29063743464e-05 -1.47224683251e-08 0)
(4.29065196796e-05 6.91095743326e-09 0)
(4.29064632191e-05 -1.47196088083e-08 0)
(4.29067183832e-05 6.83618515743e-09 0)
(4.29051656543e-05 -1.35530734329e-08 0)
(0.000291322487646 -5.68838238555e-09 0)
(0.000291326067803 -2.67956050843e-09 0)
(0.000291325570075 -5.99528576072e-09 0)
(0.000291325594235 -2.63755977554e-09 0)
(0.000291325580381 -5.97328784761e-09 0)
(0.000291325608653 -2.64038744763e-09 0)
(0.000291325576991 -5.97330514627e-09 0)
(0.000291325612518 -2.64135611724e-09 0)
(0.00029132555295 -6.03098023015e-09 0)
(0.000291325658276 -2.46680838659e-09 0)
(0.000291325591987 -6.66875217489e-09 0)
(0.000291325566846 -2.68839324214e-09 0)
(0.000291325579064 -5.97232837201e-09 0)
(0.000291325608704 -2.64036028186e-09 0)
(0.000291325577034 -5.972861973e-09 0)
(0.000291325611326 -2.6425056144e-09 0)
(0.000291325563468 -5.97852771508e-09 0)
(0.000291325613409 -2.50877502121e-09 0)
(0.000291326010525 -6.69683395009e-09 0)
(0.000291322826592 -4.29740172719e-09 0)
(0.00213082402139 -1.61037346717e-09 0)
(0.00213082032737 6.64679388709e-11 0)
(0.00213082133125 -1.47842817507e-09 0)
(0.0021308212773 3.83730720987e-11 0)
(0.00213082127007 -1.47577116142e-09 0)
(0.00213082126683 3.80524500986e-11 0)
(0.00213082127323 -1.47599490952e-09 0)
(0.00213082126661 3.81608703158e-11 0)
(0.0021308212719 -1.4725764669e-09 0)
(0.00213082126624 5.33962353752e-11 0)
(0.00213082125006 -1.47981369183e-09 0)
(0.00213082126688 3.43204076439e-11 0)
(0.00213082127314 -1.47599503789e-09 0)
(0.00213082126688 3.81507325919e-11 0)
(0.00213082127326 -1.47616847901e-09 0)
(0.00213082125427 3.91362636936e-11 0)
(0.00213082134746 -1.4754062486e-09 0)
(0.00213082127168 6.10268779722e-13 0)
(0.00213081800358 -1.36264434994e-09 0)
(0.00213084997266 3.98603397906e-10 0)
(0.0141099697456 7.59069575048e-10 0)
(0.0141099736375 4.00105885846e-11 0)
(0.0141099731448 -5.32961522136e-12 0)
(0.0141099731348 6.536177849e-12 0)
(0.0141099731495 2.60280998188e-11 0)
(0.0141099731463 3.43609862779e-12 0)
(0.0141099731476 2.56391088959e-11 0)
(0.0141099731463 3.5270987519e-12 0)
(0.0141099731476 2.56386197039e-11 0)
(0.0141099731452 2.74127595619e-12 0)
(0.0141099731467 2.72786238089e-11 0)
(0.0141099731463 3.52301174339e-12 0)
(0.0141099731476 2.56372180473e-11 0)
(0.0141099731461 3.4820236971e-12 0)
(0.014109973148 2.60400798192e-11 0)
(0.0141099731506 2.62122615274e-12 0)
(0.0141099731141 1.69155037222e-11 0)
(0.0141099731916 9.42191151885e-11 0)
(0.0141099738465 -3.32675484134e-10 0)
(0.0141099685981 -1.16776143107e-09 0)
(0.0494485302518 -1.54461164791e-12 0)
(0.0494485224423 -6.85189787911e-11 0)
(0.0494485243872 2.27409757732e-11 0)
(0.0494485243217 6.81715100989e-13 0)
(0.0494485242852 2.91880755674e-12 0)
(0.0494485242923 1.60441104846e-13 0)
(0.0494485242919 3.89211579629e-12 0)
(0.0494485242921 1.75207071074e-15 0)
(0.0494485242918 3.88867063546e-12 0)
(0.0494485242921 -2.33840724562e-15 0)
(0.0494485242918 3.88740428733e-12 0)
(0.0494485242921 2.69194389002e-14 0)
(0.0494485242917 3.86136608795e-12 0)
(0.0494485242925 8.63545346342e-15 0)
(0.0494485242929 4.08182862505e-12 0)
(0.0494485242683 -1.19767390449e-12 0)
(0.0494485243992 3.40666384039e-12 0)
(0.0494485244669 3.9130251073e-11 0)
(0.049448518948 -1.23567461735e-10 0)
(0.049448566907 -1.81990008789e-10 0)
(0.11348686821 -1.80893296902e-09 0)
(0.113486875019 -3.09796327257e-10 0)
(0.113486874352 1.06217687395e-10 0)
(0.113486874243 -5.25721827211e-12 0)
(0.113486874282 -2.0084489627e-12 0)
(0.113486874279 3.62543328691e-13 0)
(0.113486874278 1.90125692967e-14 0)
(0.113486874278 -3.10237946444e-14 0)
(0.113486874278 4.16333634234e-17 0)
(0.113486874278 -1.21430643318e-15 0)
(0.113486874278 -5.88418203051e-15 0)
(0.113486874278 -4.81489847992e-14 0)
(0.113486874278 3.94337340559e-14 0)
(0.113486874278 6.92709778427e-14 0)
(0.113486874278 -8.37239999552e-13 0)
(0.113486874279 2.58772170358e-12 0)
(0.113486874286 1.77574968616e-11 0)
(0.113486874228 -2.42498098033e-10 0)
(0.113486874468 8.97255137807e-10 0)
(0.113486873443 2.27688823243e-09 0)
)
;

boundaryField
{
    top
    {
        type            fixedValue;
        value           uniform (0.1 0 0);
    }
    bottom
    {
        type            fixedValue;
        value           uniform (0 0 0);
    }
    left
    {
        type            cyclic;
    }
    right
    {
        type            cyclic;
    }
    frontAndBack
    {
        type            empty;
    }
}


// ************************************************************************* //
