/*--------------------------------*- C++ -*----------------------------------*\
| =========                 |                                                 |
| \\      /  F ield         | OpenFOAM: The Open Source CFD Toolbox           |
|  \\    /   O peration     | Version:  2.4.0                                 |
|   \\  /    A nd           | Web:      www.OpenFOAM.org                      |
|    \\/     M anipulation  |                                                 |
\*---------------------------------------------------------------------------*/
FoamFile
{
    version     2.0;
    format      ascii;
    class       volVectorField;
    location    "0.1";
    object      U;
}
// * * * * * * * * * * * * * * * * * * * * * * * * * * * * * * * * * * * * * //

dimensions      [0 1 -1 0 0 0 0];

internalField   nonuniform List<vector> 
100
(
(-3.18834732423e-07 -7.95126482151e-08 0)
(-4.07541232623e-07 1.53316783068e-08 0)
(-3.033077141e-07 -8.57446787037e-08 0)
(-4.18191862928e-07 1.53764987437e-08 0)
(-3.02981953728e-07 -8.61380070706e-08 0)
(-4.17484471723e-07 1.52814388571e-08 0)
(-3.0295404118e-07 -8.6147794816e-08 0)
(-4.15352156174e-07 9.60901555694e-09 0)
(-3.06293283028e-07 -5.88047096595e-08 0)
(-3.95594799806e-07 5.92430882219e-08 0)
(-1.09198911655e-06 1.2340115474e-07 0)
(-1.02429534581e-06 -3.04766713181e-08 0)
(-1.08319332423e-06 1.23665816772e-07 0)
(-1.03089012937e-06 -3.32820153901e-08 0)
(-1.08149189483e-06 1.23286405674e-07 0)
(-1.029829961e-06 -3.29058531075e-08 0)
(-1.08346544514e-06 1.23546456271e-07 0)
(-1.0290633832e-06 -3.2452725439e-08 0)
(-1.02296186427e-06 1.19255338067e-07 0)
(-1.40194869006e-06 -4.36970871142e-08 0)
(-1.73586346943e-06 -3.59398874666e-08 0)
(-1.73459348242e-06 2.54212718211e-08 0)
(-1.73766582815e-06 -4.33182071157e-08 0)
(-1.73906518447e-06 2.49358370086e-08 0)
(-1.73497834512e-06 -4.21027165081e-08 0)
(-1.73860122058e-06 2.50692602407e-08 0)
(-1.73476024068e-06 -4.20218038741e-08 0)
(-1.7400523331e-06 2.79149668429e-08 0)
(-1.74068856282e-06 -5.45407772378e-08 0)
(-1.66331483186e-06 -3.2010163467e-09 0)
(1.16103119349e-05 -5.46688335497e-10 0)
(1.16066829591e-05 2.72049656348e-09 0)
(1.16075712104e-05 -3.48795289547e-09 0)
(1.16091890382e-05 4.01212906753e-09 0)
(1.16080333962e-05 -2.63107560774e-09 0)
(1.16092131037e-05 3.97299631873e-09 0)
(1.16080570405e-05 -2.68129857368e-09 0)
(1.16090164181e-05 3.5716926469e-09 0)
(1.16065200804e-05 8.51605428067e-10 0)
(1.16160233156e-05 6.99337526252e-09 0)
(4.2906425625e-05 3.89385142314e-09 0)
(4.29054496302e-05 -1.51243932993e-08 0)
(4.29065396052e-05 6.90606575308e-09 0)
(4.29063730663e-05 -1.4716119688e-08 0)
(4.29065311253e-05 6.91875041827e-09 0)
(4.29063743464e-05 -1.47224683251e-08 0)
(4.29065196796e-05 6.91095743326e-09 0)
(4.29064632191e-05 -1.47196088083e-08 0)
(4.29067183832e-05 6.83618515743e-09 0)
(4.29051656543e-05 -1.35530734329e-08 0)
(0.000291325591987 -6.66875217489e-09 0)
(0.000291325566846 -2.68839324214e-09 0)
(0.000291325579064 -5.97232837201e-09 0)
(0.000291325608704 -2.64036028186e-09 0)
(0.000291325577034 -5.972861973e-09 0)
(0.000291325611326 -2.6425056144e-09 0)
(0.000291325563468 -5.97852771508e-09 0)
(0.000291325613409 -2.50877502121e-09 0)
(0.000291326010525 -6.69683395009e-09 0)
(0.000291322826592 -4.29740172719e-09 0)
(0.00213082125006 -1.47981369183e-09 0)
(0.00213082126688 3.43204076439e-11 0)
(0.00213082127314 -1.47599503789e-09 0)
(0.00213082126688 3.81507325919e-11 0)
(0.00213082127326 -1.47616847901e-09 0)
(0.00213082125427 3.91362636936e-11 0)
(0.00213082134746 -1.4754062486e-09 0)
(0.00213082127168 6.10268779722e-13 0)
(0.00213081800358 -1.36264434994e-09 0)
(0.00213084997266 3.98603397906e-10 0)
(0.0141099731467 2.72786238089e-11 0)
(0.0141099731463 3.52301174339e-12 0)
(0.0141099731476 2.56372180473e-11 0)
(0.0141099731461 3.4820236971e-12 0)
(0.014109973148 2.60400798192e-11 0)
(0.0141099731506 2.62122615274e-12 0)
(0.0141099731141 1.69155037222e-11 0)
(0.0141099731916 9.42191151885e-11 0)
(0.0141099738465 -3.32675484134e-10 0)
(0.0141099685981 -1.16776143107e-09 0)
(0.0494485242918 3.88740428733e-12 0)
(0.0494485242921 2.69194389002e-14 0)
(0.0494485242917 3.86136608795e-12 0)
(0.0494485242925 8.63545346342e-15 0)
(0.0494485242929 4.08182862505e-12 0)
(0.0494485242683 -1.19767390449e-12 0)
(0.0494485243992 3.40666384039e-12 0)
(0.0494485244669 3.9130251073e-11 0)
(0.049448518948 -1.23567461735e-10 0)
(0.049448566907 -1.81990008789e-10 0)
(0.113486874278 -5.88418203051e-15 0)
(0.113486874278 -4.81489847992e-14 0)
(0.113486874278 3.94337340559e-14 0)
(0.113486874278 6.92709778427e-14 0)
(0.113486874278 -8.37239999552e-13 0)
(0.113486874279 2.58772170358e-12 0)
(0.113486874286 1.77574968616e-11 0)
(0.113486874228 -2.42498098033e-10 0)
(0.113486874468 8.97255137807e-10 0)
(0.113486873443 2.27688823243e-09 0)
)
;

boundaryField
{
    top
    {
        type            fixedValue;
        value           uniform (0.1 0 0);
    }
    bottom
    {
        type            fixedValue;
        value           nonuniform 0();
    }
    left
    {
        type            cyclic;
    }
    right
    {
        type            cyclic;
    }
    frontAndBack
    {
        type            empty;
    }
    procBoundary3to1
    {
        type            processor;
        value           nonuniform List<vector> 10((6.6140820156e-08 1.0276437283e-07 0) (1.54390776132e-07 -2.78182904487e-08 0) (6.91533095305e-08 9.9970584951e-08 0) (1.58457760414e-07 -2.76922850879e-08 0) (6.83865416853e-08 9.9033218167e-08 0) (1.58389905339e-07 -2.76939072369e-08 0) (6.79444417638e-08 9.90384615897e-08 0) (1.58870281497e-07 -2.78872485868e-08 0) (7.95179474442e-08 9.85488489961e-08 0) (5.8714006084e-08 -2.30720459484e-08 0));
    }
    procBoundary3to2
    {
        type            processor;
        value           nonuniform List<vector> 10((5.99849420731e-07 -1.85993328974e-08 0) (1.59334425304e-06 4.08012534224e-08 0) (4.86960647809e-06 -1.04971057525e-08 0) (2.57512912423e-05 -1.2828537075e-08 0) (6.51971814746e-05 -5.20041311569e-10 0) (0.000252961336414 2.16555870458e-11 0) (0.00157224219732 1.80411241502e-16 0) (0.0121794900432 4.47211712107e-15 0) (0.0457241833448 -3.1918911958e-15 0) (0.11360551959 4.99600361081e-16 0));
    }
    procBoundary3to2throughright
    {
        type            processorCyclic;
        value           nonuniform List<vector> 10((4.74649783746e-07 1.49609976921e-07 0) (1.62066013916e-06 -9.69912979153e-08 0) (4.88833498633e-06 3.45548714293e-08 0) (2.57527348985e-05 -1.96120170513e-09 0) (6.51966364815e-05 -1.00419412077e-08 0) (0.000252961967524 -8.00455473955e-10 0) (0.00157224176421 5.25038554634e-11 0) (0.0121794905409 -1.27592238761e-10 0) (0.045724182475 1.52209356423e-11 0) (0.113605520688 2.96699213392e-10 0));
    }
}


// ************************************************************************* //
