/*--------------------------------*- C++ -*----------------------------------*\
| =========                 |                                                 |
| \\      /  F ield         | OpenFOAM: The Open Source CFD Toolbox           |
|  \\    /   O peration     | Version:  2.4.0                                 |
|   \\  /    A nd           | Web:      www.OpenFOAM.org                      |
|    \\/     M anipulation  |                                                 |
\*---------------------------------------------------------------------------*/
FoamFile
{
    version     2.0;
    format      ascii;
    class       volScalarField;
    location    "0.2";
    object      rho;
}
// * * * * * * * * * * * * * * * * * * * * * * * * * * * * * * * * * * * * * //

dimensions      [1 -3 0 0 0 0 0];

internalField   nonuniform List<scalar> 
100
(
-56.9495810349
-8.73490058337
1.31742660353
0.995338119836
1.00527783798
1.00068563287
0.999861968364
1.0000141089
1.00000095316
0.999999466733
187.86921967
-0.364198686772
-3.31452681663
1.19958168943
1.0063951462
0.996967285186
1.00057500596
0.999996539803
0.999986468735
1.00000171931
-173.84180376
109.835172315
2.78407985619
1.0207445018
1.03936995293
1.00489616967
0.999016080225
1.00007876859
1.00001332276
0.999996371251
10735.7639197
221.659383294
60.0549887978
1.03743792117
1.00069619536
0.999245484325
1.00016941673
0.999996585512
0.99999633024
1.00000041337
-5421035.39751
13042.7454344
-19.8361369968
-2.26753177709
0.996718077254
0.998452297962
1.0004611647
0.999979938905
0.999991824075
1.00000166699
215.89452499
12.4849095593
0.140141709311
0.933803527718
1.01806293382
1.00525546063
0.999226567844
1.00000749094
1.00001931764
0.999997650711
1669.23211213
62.4805092311
-42.3703162331
-1.94034212981
0.994943774928
0.998626710701
1.001355521
0.999901025518
0.99998782424
1.00000403406
-622.119091657
4.23567087677
0.361501365689
1.0529777107
1.00631069929
0.999629804414
1.00012921984
0.999999715555
0.99999516593
1.00000116791
745.972684817
21.0309853053
1.6922734658
0.977945022789
1.0356960675
1.00484896225
0.999114626772
1.00007263563
1.00001023535
0.999997014443
-9401.9350966
3591.66906854
73.0774550877
1.08626180938
0.998915896797
0.999359736989
1.00021060157
0.999971404024
1.00000229461
0.999999207041
)
;

boundaryField
{
    top
    {
        type            bounceBack;
        value           nonuniform 0();
    }
    bottom
    {
        type            bounceBack;
        value           uniform 1;
    }
    left
    {
        type            cyclic;
    }
    right
    {
        type            cyclic;
    }
    frontAndBack
    {
        type            empty;
    }
    procBoundary0to1
    {
        type            processor;
        value           nonuniform List<scalar> 10(0.999999649334 1.00000073383 0.999997636013 1.00000029797 1.00000091148 0.999999109527 1.00000303711 0.999999668679 0.999997322383 1.00000265986);
    }
    procBoundary0to1throughleft
    {
        type            processorCyclic;
        value           nonuniform List<scalar> 10(-35.5659578558 3.00103151148 -95.5218935211 1.88668851562 272.527824379 -11.2020252706 594.787323188 -7.23782521046 -82.4909663978 2.34034538109);
    }
    procBoundary0to2
    {
        type            processor;
        value           nonuniform List<scalar> 10(72.189356148 77.0090308225 1.10609002666 0.982089710211 1.0001776423 1.00059518358 0.999897423016 0.999999367553 1.00000338533 0.999999322855);
    }
}


// ************************************************************************* //
