/*--------------------------------*- C++ -*----------------------------------*\
| =========                 |                                                 |
| \\      /  F ield         | OpenFOAM: The Open Source CFD Toolbox           |
|  \\    /   O peration     | Version:  2.4.0                                 |
|   \\  /    A nd           | Web:      www.OpenFOAM.org                      |
|    \\/     M anipulation  |                                                 |
\*---------------------------------------------------------------------------*/
FoamFile
{
    version     2.0;
    format      ascii;
    class       volVectorField;
    location    "0.2";
    object      U;
}
// * * * * * * * * * * * * * * * * * * * * * * * * * * * * * * * * * * * * * //

dimensions      [0 1 -1 0 0 0 0];

internalField   nonuniform List<vector> 
100
(
(-2.30350189154 0.0731192990584 -0)
(1.97091980788 -0.281370477287 -0)
(-0.0138310873657 -0.137185490718 0)
(0.011127481931 0.0133959188506 0)
(0.00635724491809 0.00191443010471 0)
(-0.000835334446102 -0.00071662040774 0)
(2.32500222328e-05 6.20927127123e-05 0)
(1.41547368234e-05 7.7457609969e-06 0)
(-2.74850316862e-06 -2.50341491578e-06 0)
(4.53871984499e-07 -9.55833102685e-08 0)
(-6.3068894136 2.31388996749 0)
(-160.940557016 14.1162102124 -0)
(1.67758374035 -0.151807306346 -0)
(0.113014709232 -0.028759270932 0)
(-0.0125497719785 -0.00254356907439 0)
(0.000374684944034 0.000849982193802 0)
(0.000348943670413 -9.68702968524e-05 0)
(-6.12400291708e-05 -7.5585839891e-06 0)
(9.24281466433e-07 3.377238716e-06 0)
(7.75089100645e-07 -4.72379892695e-08 0)
(-1.86345569399 0.417700012768 -0)
(-0.0624760374014 0.178580072938 0)
(0.665866235722 -0.659851865506 0)
(0.0112588285867 -0.00389953960936 0)
(0.0396329312488 -0.00169624670654 0)
(-0.00205116395345 0.000470898130354 0)
(-0.00037629509099 -2.78917265354e-05 0)
(0.000124800090125 -6.97613640131e-06 0)
(-9.12979365567e-06 1.69246881312e-06 0)
(2.68312455268e-07 3.06328954925e-08 0)
(-10.7882662102 -1.14482179728 0)
(-4.16113865483 2.61739407567 0)
(1.12841903002 -0.296521118572 0)
(0.0126403408444 0.0530212056727 0)
(-0.00265112771238 0.00366211327913 0)
(0.000171460129611 -0.00156749684807 0)
(7.69301564355e-05 0.000176366254907 0)
(-1.68861880669e-05 1.24126946172e-05 0)
(5.61218358491e-07 -5.93017101761e-06 0)
(4.07696007144e-08 8.01133787913e-08 0)
(-0.865378983918 -0.0307820845809 -0)
(1.14127015692 0.0219464693743 0)
(8.64956368032 0.807357473915 -0)
(2.06142966216 0.0509920326104 -0)
(-0.0119713690105 -0.00339280921298 0)
(0.00107652620605 0.00103816303623 0)
(0.000211621330095 -8.36398244736e-05 0)
(-5.40422114555e-05 -1.4092362488e-05 0)
(2.80634032869e-06 4.16298266794e-06 0)
(2.87948742028e-07 1.26999026479e-07 0)
(70.7342033646 26.0143851387 0)
(-3.5052294268 -0.633009226505 0)
(1027.1006627 111.02067148 0)
(-0.0182543046071 0.0119571714206 0)
(0.0252219277064 -0.000597557256857 0)
(-9.28946694985e-05 -0.000866286482095 0)
(-0.000496531224901 0.000101121611582 0)
(8.93090340644e-05 2.64260404875e-07 0)
(-1.2457930965e-06 -1.89935787355e-06 0)
(-1.2610245212e-06 -3.67900221186e-08 0)
(-1.44152835183 0.0344982013648 0)
(4.93922455036 -0.00595294622707 0)
(1.25666116893 0.0285802163816 -0)
(2.40576381271 0.00364162403556 -0)
(-0.0270054954058 0.00385972867527 0)
(0.00406921566618 -0.0010243278514 0)
(0.000496464670605 6.95971193211e-05 0)
(-0.000148201545812 1.77021151402e-05 0)
(1.24721032859e-05 -4.95333011672e-06 0)
(-1.19433885554e-06 -6.56891364941e-09 0)
(1.97447799814 -0.866079207201 -0)
(-5.68060101611 0.354761629085 0)
(7.40744144929 -1.41272109927 0)
(0.0375542380864 -0.0590580766127 0)
(-0.00232135931645 -0.00295631053755 0)
(-4.34776328738e-05 0.00227507379171 0)
(0.000145563400384 -0.000256270736387 0)
(-2.59487363242e-05 -1.03084881631e-05 0)
(-1.10737927394e-07 6.5255933765e-06 0)
(1.52426764931e-06 3.36225116588e-07 0)
(0.933098992796 -1.32976600483 0)
(-0.388325629447 -1.87247899947 0)
(0.0784694189771 0.121590075793 0)
(-0.0027612409011 0.00952794161406 0)
(0.0383095692982 -0.000779778910875 0)
(-0.0016977292735 -6.46077389781e-06 0)
(-0.000376506978127 2.35288416812e-05 0)
(0.000111668631606 -1.22054462076e-05 0)
(-8.01977740549e-06 3.42318480849e-06 0)
(8.20682634613e-07 -1.0295635913e-06 0)
(0.949090356123 -1.88558180342 -0)
(1.07879751951 -1.21515768498 0)
(0.897443833258 -0.878916163999 0)
(0.0346180788558 0.0489995652808 0)
(-0.00621594411171 0.00399722616036 0)
(0.000660166712473 -0.00166825489537 0)
(2.54965608304e-05 0.000176619324295 0)
(-8.37831231578e-06 1.99660216406e-05 0)
(2.21817238541e-06 -7.98866679901e-06 0)
(-2.86295973166e-06 5.12529559599e-07 0)
)
;

boundaryField
{
    top
    {
        type            fixedValue;
        value           nonuniform 0();
    }
    bottom
    {
        type            fixedValue;
        value           uniform (0 0 0);
    }
    left
    {
        type            cyclic;
    }
    right
    {
        type            cyclic;
    }
    frontAndBack
    {
        type            empty;
    }
    procBoundary0to1
    {
        type            processor;
        value           nonuniform List<vector> 10((1.74311888136e-07 -7.9441086141e-08 0) (-7.13090799155e-07 -7.39033901314e-08 0) (1.76377070459e-06 1.09288540697e-07 0) (-3.80304081166e-07 1.59500248534e-08 0) (-6.50466366694e-07 1.01169769111e-07 0) (1.00075434017e-06 2.78756889884e-08 0) (-2.28622703298e-06 -2.58263953449e-07 0) (5.33870435897e-07 2.83336463013e-07 0) (2.25968733574e-06 -3.64228698601e-07 0) (-1.93343798229e-06 3.12427497054e-07 0));
    }
    procBoundary0to1throughleft
    {
        type            processorCyclic;
        value           nonuniform List<vector> 10((-1.36556134621 -0.0992384950161 -0) (-1.55044458442 -0.134474399532 0) (-1.57529841543 0.0162540193107 -0) (0.742576967789 2.16658143785 0) (13.6658911356 0.658495513844 0) (-1.29515046703 -0.692475418859 -0) (-1.63689231084 0.0156631292046 0) (-0.0283264104703 -1.92343286143 -0) (-1.46467385517 -0.0301076026211 -0) (-1.59433149857 -0.894542822906 0));
    }
    procBoundary0to2
    {
        type            processor;
        value           nonuniform List<vector> 10((-6.40160478195 7.36948400016 0) (1.0532977988 -1.07460219781 0) (-0.0194149965059 -0.0681666303502 0) (-0.00823123688849 0.00644449558812 0) (0.00262815352543 0.000515331831701 0) (-8.11279921154e-05 -0.000330991632456 0) (-7.17461066255e-05 4.01743086924e-05 0) (1.70149230852e-05 2.24116541227e-06 0) (1.10993592094e-06 -1.39586833892e-06 0) (1.50305801381e-06 4.20892569294e-08 0));
    }
}


// ************************************************************************* //
