/*--------------------------------*- C++ -*----------------------------------*\
| =========                 |                                                 |
| \\      /  F ield         | OpenFOAM: The Open Source CFD Toolbox           |
|  \\    /   O peration     | Version:  2.4.0                                 |
|   \\  /    A nd           | Web:      www.OpenFOAM.org                      |
|    \\/     M anipulation  |                                                 |
\*---------------------------------------------------------------------------*/
FoamFile
{
    version     2.0;
    format      ascii;
    class       volScalarField;
    location    "0.3";
    object      rho;
}
// * * * * * * * * * * * * * * * * * * * * * * * * * * * * * * * * * * * * * //

dimensions      [1 -3 0 0 0 0 0];

internalField   nonuniform List<scalar> 
100
(
6.41870889764e+41
-1.89779702598e+38
-2.39327673632e+37
3.03110270909e+33
1.19856866617e+32
-6.20058697122e+28
2.57411412009e+28
1.02074339855e+28
-7.4054242986e+27
-3.29634558393e+26
-1.95018212184e+37
-1.28939449007e+37
1.51675605433e+33
1.34079124092e+32
3.58104805838e+30
-7.93241122093e+29
-6.12777085794e+27
-5.23814447352e+26
-1.30095722591e+25
1.06120599037e+24
-7.35085048762e+35
5.96714482379e+32
2.11412018984e+31
-3.57180747088e+31
1.25487491504e+31
2.73803220232e+30
1.61462978673e+26
-5.30100283019e+24
3.52032712942e+23
1.90517613352e+23
1.62642876506e+32
-6.29770632981e+31
4.52152920006e+30
-1.24797714876e+29
-4.60990753395e+30
-1.97216294409e+26
8.2189229483e+25
1.0127949438e+24
1.13948214259e+23
-2.42596125938e+22
3.95494829577e+30
1.57934420634e+31
1.15541419582e+30
5.14564730636e+29
5.1873043441e+26
3.62410379246e+26
-5.60123297941e+25
-1.25145631744e+25
3.58190020245e+22
9.47680214073e+22
-4.62608107863e+30
9.25858490773e+29
-5.95124006043e+28
1.50180246652e+26
-6.25435202761e+24
-7.94984299293e+25
-8.28845473232e+25
-9.50602029369e+23
4.0343451686e+22
-3.04658192921e+23
3.17712161103e+29
1.29156382531e+29
-1.11646365429e+28
2.20855299637e+27
3.31280595668e+25
-3.5544668466e+25
-6.36873987161e+24
-4.42838169029e+24
-3.42576978944e+23
5.63551315832e+22
-7.11509510976e+31
1.1821827932e+29
-1.87261608712e+27
4.49148832523e+26
1.40267409772e+27
6.88252729629e+25
-1.09547937161e+25
-4.35187415084e+24
-6.2291274392e+23
1.35765363045e+23
-5.32046623485e+31
-1.54097477989e+31
1.68763674018e+28
-6.30358455875e+27
1.28952361692e+26
3.35898163991e+26
2.26048800202e+25
-4.44116415122e+24
-1.93377823808e+24
8.20093840833e+23
5.96852674478e+31
-2.40085556082e+28
-1.68727464227e+27
3.11310021582e+27
-8.47710442342e+26
-9.47594414271e+25
1.2254572902e+25
1.62129680551e+24
2.90201756456e+24
-6.15944241915e+24
)
;

boundaryField
{
    top
    {
        type            bounceBack;
        value           uniform 1;
    }
    bottom
    {
        type            bounceBack;
        value           nonuniform 0();
    }
    left
    {
        type            cyclic;
    }
    right
    {
        type            cyclic;
    }
    frontAndBack
    {
        type            empty;
    }
    procBoundary2to0
    {
        type            processor;
        value           nonuniform List<scalar> 10(-5.991819176e+37 -2.30552984941e+37 3.06230723572e+33 1.36961399706e+32 -1.7945951917e+28 -5.62448102917e+26 6.86310525608e+25 -4.32463669699e+25 -1.72344647409e+25 6.79737335894e+23);
    }
    procBoundary2to3
    {
        type            processor;
        value           nonuniform List<scalar> 10(-8.43769774432e+22 -7.49489726774e+20 7.13164234988e+21 -3.23523088079e+20 7.53422348204e+20 -5.45975745897e+19 1.35339693279e+19 -1.67724989353e+19 -2.10811061015e+19 -4.3732718561e+18);
    }
    procBoundary2to3throughleft
    {
        type            processorCyclic;
        value           nonuniform List<scalar> 10(3.96563508341e+35 -8.27537219963e+33 1.25193655779e+31 -2.26273946929e+30 -5.47460687505e+28 -3.29626805988e+28 -1.60647132306e+28 8.08094932037e+27 -6.61675781053e+28 8.13054935628e+27);
    }
}


// ************************************************************************* //
