/*--------------------------------*- C++ -*----------------------------------*\
| =========                 |                                                 |
| \\      /  F ield         | OpenFOAM: The Open Source CFD Toolbox           |
|  \\    /   O peration     | Version:  2.4.0                                 |
|   \\  /    A nd           | Web:      www.OpenFOAM.org                      |
|    \\/     M anipulation  |                                                 |
\*---------------------------------------------------------------------------*/
FoamFile
{
    version     2.0;
    format      ascii;
    class       volVectorField;
    location    "0.3";
    object      U;
}
// * * * * * * * * * * * * * * * * * * * * * * * * * * * * * * * * * * * * * //

dimensions      [0 1 -1 0 0 0 0];

internalField   nonuniform List<vector> 
100
(
(0.103490810715 1.1224953802 0)
(0.341494809447 1.1358444376 -0)
(0.5891024509 1.05169630771 -0)
(0.892440788482 0.952426688296 0)
(0.912883725856 0.920636453083 0)
(1.12001390383 0.0958676374869 -0)
(-1.72561523292 -0.685308673377 0)
(2.03035357651 2.56396445429 0)
(1.21541143586 -1.01901839447 -0)
(-1.04428228597 -0.0286884142679 -0)
(0.019871131852 1.36405268672 -0)
(0.184372099067 1.16588443745 -0)
(0.37770663549 1.40937001231 0)
(-0.446299709013 1.38292508525 0)
(1.6523497161 -1.04283936177 0)
(1.11639547856 -0.262073271016 -0)
(1.12835710851 -0.0508072865638 -0)
(4.13537462569 0.992325910881 -0)
(0.693038534321 1.02588766461 -0)
(1.93740652703 0.986699855304 0)
(0.0214441207138 1.16226379396 -0)
(0.351671883904 0.254427261877 0)
(1.32708431439 2.90075497802 0)
(-5.31183811851 3.01046074411 -0)
(-5.2159466138 2.58313465155 0)
(1.12560335163 -0.257766944848 0)
(1.15659649161 -0.162731154836 0)
(0.56866927615 0.762806727208 -0)
(0.674513230163 1.41467191937 0)
(4.7098578558 1.4509803092 0)
(1.11031422515 -1.77198201634 0)
(0.806974604951 -0.622168450769 -0)
(-10.6483609747 6.37050450487 0)
(-85.9609844667 58.8326535139 -0)
(-0.440114244679 0.370944104756 -0)
(4.0392296964 2.66484649325 -0)
(0.249538393695 -0.59305072828 0)
(0.858288130961 -0.960193189318 0)
(1.34873291613 1.39667416705 0)
(9.80838157646 4.02224948761 -0)
(-23.0471742018 26.8351182798 0)
(0.36146438307 0.020371097896 0)
(0.153024153521 1.60738089737 0)
(-1.34078610696 1.07694994195 0)
(-1.23996136722 0.559054884505 0)
(1.05276999127 1.83824717605 0)
(-3.77567492447 -5.42252809025 -0)
(1.14536893655 0.868686127773 -0)
(3.18914080264 1.09063382243 0)
(-1.63211094177 2.19799248162 0)
(1.18871593218 -3.05701619152 -0)
(-0.428972079103 -0.271793428855 0)
(0.0569924813268 -1.31529193338 -0)
(3.6206356977 -3.07854205231 0)
(38.5671331619 -23.4047783193 -0)
(-3.55471192487 -4.41141464652 -0)
(1.01003729668 1.0682687083 -0)
(1.14663366173 -1.43840969337 -0)
(9.79423282949 -10.2738347391 0)
(1.42593784615 -1.24447916057 -0)
(3.36324610925 -8.20603620121 0)
(-0.104180897208 0.813135665703 0)
(2.8676146027 -2.3573891903 -0)
(2.85248620082 -3.01088854014 0)
(8.42620002097 -5.66440804018 0)
(0.995723602224 -0.0699664788601 -0)
(-13.2029056156 15.0501914422 -0)
(1.36708297758 -1.23180287596 -0)
(1.95393771653 -1.03312557839 -0)
(5.79683577479 -5.40082928779 0)
(0.977731352486 -1.25186617535 -0)
(0.894575086361 -0.860163767556 0)
(-2.49518596072 2.42185033173 -0)
(-7.69964979786 8.81375167941 0)
(1.07854934552 -1.3692247304 0)
(0.785626958452 -1.07689193676 0)
(7.35972248899 -8.39541123073 -0)
(1.79772028009 -1.71983978512 -0)
(0.860268154858 -0.668520061996 -0)
(0.969618119201 -1.22141487998 0)
(-3.30760207714 4.09609771143 -0)
(1.13052181901 -0.737328301367 -0)
(0.606169561986 -0.349581171392 0)
(-1.47796932136 1.93392087085 -0)
(-15.1623439062 17.3291152084 0)
(0.648737185738 -0.624915267116 0)
(1.8478043086 -1.22069651173 0)
(2.44935043209 -1.35635697368 -0)
(0.542350461992 -0.325851037844 -0)
(-17.4335719185 8.88661820658 0)
(-0.0508465263075 0.32681846581 0)
(-1.16297998314 1.42933991794 -0)
(1.30787850519 -1.12479527325 -0)
(-1.33530258985 1.88274924493 0)
(1.04420699522 -1.14092403059 -0)
(-0.629169921914 1.05022357622 -0)
(-0.290468369761 0.564678574125 0)
(-1.10136216678 0.348187462947 0)
(2.33090407414 -1.41942815352 0)
(-0.860407502255 0.352031462284 -0)
)
;

boundaryField
{
    top
    {
        type            fixedValue;
        value           uniform (0.1 0 0);
    }
    bottom
    {
        type            fixedValue;
        value           nonuniform 0();
    }
    left
    {
        type            cyclic;
    }
    right
    {
        type            cyclic;
    }
    frontAndBack
    {
        type            empty;
    }
    procBoundary2to0
    {
        type            processor;
        value           nonuniform List<vector> 10((1.07056307402 0.728464476567 -0) (0.585945357159 1.12108771228 -0) (0.99763131535 0.974980366061 0) (0.948959892389 0.946706643289 0) (1.06169650265 0.81261607519 -0) (1.03009401905 0.727368544762 -0) (0.321379859255 -0.0403671443875 0) (52.7080830229 5.78503529501 -0) (1.29614885662 0.830073542279 -0) (2.57861629435 0.821028583022 0));
    }
    procBoundary2to3
    {
        type            processor;
        value           nonuniform List<vector> 10((-2.86090320709 1.96596117683 -0) (0.268994209248 -0.597701400613 -0) (-2.96083254869 -0.76574264383 0) (-9.44676962716 -4.33062277761 -0) (-5.28756811587 -0.903002677441 0) (-9.20039885528 -3.0206365558 -0) (-0.582008221418 -0.770906641617 0) (8.19342614757 -4.2500164524 -0) (-5.9884103794 3.24928625141 -0) (-3.32905671113 1.67481520587 -0));
    }
    procBoundary2to3throughleft
    {
        type            processorCyclic;
        value           nonuniform List<vector> 10((0.0586922060486 1.12200342916 0) (0.0758504173329 1.16952967603 -0) (-0.866113105925 1.19971539025 0) (-1.06632664813 2.02405158412 -0) (0.223460469762 1.37665810148 -0) (-0.0977804249637 0.54358769779 -0) (-1.20885845438 2.30424096363 -0) (-3.74831729535 4.16067765305 0) (30.5046834902 -37.3966012253 -0) (2.88623930451 -3.21354983366 0));
    }
}


// ************************************************************************* //
