/*--------------------------------*- C++ -*----------------------------------*\
| =========                 |                                                 |
| \\      /  F ield         | OpenFOAM: The Open Source CFD Toolbox           |
|  \\    /   O peration     | Version:  2.4.0                                 |
|   \\  /    A nd           | Web:      www.OpenFOAM.org                      |
|    \\/     M anipulation  |                                                 |
\*---------------------------------------------------------------------------*/
FoamFile
{
    version     2.0;
    format      ascii;
    class       volScalarField;
    location    "200";
    object      rho;
}
// * * * * * * * * * * * * * * * * * * * * * * * * * * * * * * * * * * * * * //

dimensions      [1 -3 0 0 0 0 0];

internalField   nonuniform List<scalar> 
2500
(
1.00001791094
1.0000183565
1.00001832891
1.00001820226
1.00001797285
1.00001768456
1.00001735721
1.00001700614
1.00001663981
1.00001626333
1.00001587976
1.00001549106
1.00001509853
1.0000147031
1.00001430545
1.00001390609
1.00001350539
1.00001310367
1.00001270114
1.000012298
1.00001189437
1.00001149038
1.00001108611
1.00001068164
1.00001027703
1.00000987233
1.0000094676
1.00000906288
1.00000865824
1.00000825373
1.00000784944
1.00000744546
1.00000704192
1.00000663898
1.00000623685
1.00000583579
1.00000543617
1.00000503846
1.00000464328
1.00000425153
1.00000386446
1.00000348396
1.00000311304
1.00000275683
1.00000242414
1.0000021316
1.00000190355
1.00000179323
1.00000182613
1.00000237783
1.00001832703
1.00001848869
1.00001831566
1.00001810921
1.00001784648
1.00001755269
1.00001723282
1.00001689408
1.00001654097
1.00001617701
1.00001580473
1.00001542603
1.00001504229
1.00001465458
1.00001426373
1.00001387037
1.00001347501
1.00001307803
1.00001267977
1.00001228049
1.0000118804
1.00001147969
1.00001107851
1.00001067699
1.00001027526
1.00000987343
1.0000094716
1.0000090699
1.00000866844
1.00000826736
1.00000786681
1.00000746697
1.00000706805
1.00000667032
1.00000627411
1.00000587983
1.00000548801
1.0000050993
1.00000471459
1.00000433501
1.00000396211
1.00000359797
1.00000324544
1.00000290857
1.00000259274
1.00000230648
1.00000205756
1.00000187333
1.00000174303
1.00000194499
1.00001870637
1.00001864648
1.00001840186
1.00001815115
1.00001786373
1.00001755557
1.00001722801
1.00001688544
1.00001653072
1.00001616639
1.00001579441
1.00001541634
1.00001503341
1.00001464657
1.0000142566
1.00001386409
1.00001346953
1.00001307333
1.00001267579
1.00001227719
1.00001187775
1.00001147765
1.00001107705
1.00001067611
1.00001027494
1.00000987367
1.00000947242
1.00000907131
1.00000867047
1.00000827004
1.00000787018
1.00000747108
1.00000707297
1.00000667612
1.00000628085
1.00000588759
1.00000549684
1.00000510925
1.00000472565
1.00000434708
1.00000397491
1.0000036109
1.0000032573
1.00000291709
1.00000259378
1.00000229261
1.00000201665
1.0000017823
1.00000156687
1.00000152694
1.00001898966
1.00001878958
1.00001849217
1.00001820211
1.00001789049
1.00001756629
1.00001722882
1.00001688038
1.00001652244
1.00001615658
1.0000157841
1.00001540617
1.00001502373
1.0000146376
1.00001424844
1.00001385678
1.00001346309
1.00001306773
1.00001267101
1.0000122732
1.00001187452
1.00001147516
1.00001107528
1.00001067503
1.00001027456
1.00000987399
1.00000947344
1.00000907306
1.00000867296
1.00000827332
1.00000787429
1.00000747607
1.00000707889
1.00000668301
1.00000628878
1.00000589657
1.00000550688
1.0000051203
1.00000473755
1.00000435953
1.00000398733
1.00000362227
1.00000326593
1.00000292016
1.00000258689
1.00000226884
1.00000196634
1.00000168784
1.00000140972
1.00000121695
1.00001921103
1.0000189207
1.00001858701
1.00001826564
1.00001793335
1.00001759394
1.0000172458
1.0000168899
1.00001652689
1.00001615765
1.000015783
1.00001540373
1.00001502055
1.00001463407
1.00001424482
1.00001385326
1.00001345978
1.00001306472
1.00001266835
1.00001227092
1.00001187263
1.00001147368
1.00001107422
1.0000106744
1.00001027435
1.00000987421
1.0000094741
1.00000907415
1.00000867451
1.00000827531
1.00000787673
1.00000747896
1.0000070822
1.00000668671
1.0000062928
1.00000590082
1.00000551119
1.0000051244
1.00000474106
1.00000436185
1.00000398759
1.00000361919
1.00000325764
1.00000290402
1.00000255925
1.00000222449
1.00000189876
1.00000158513
1.00000126387
1.00000097465
1.0000193844
1.0000190351
1.00001867602
1.00001832983
1.00001797992
1.00001762679
1.00001726847
1.00001690501
1.0000165365
1.0000161633
1.00001578587
1.00001540468
1.00001502021
1.0000146329
1.00001424316
1.00001385136
1.00001345781
1.00001306279
1.00001266656
1.00001226933
1.00001187129
1.00001147261
1.00001107345
1.00001067393
1.00001027421
1.00000987439
1.00000947461
1.00000907499
1.00000867566
1.00000827678
1.00000787849
1.00000748096
1.00000708441
1.00000668905
1.00000629515
1.00000590301
1.00000551299
1.00000512548
1.00000474093
1.00000435986
1.00000398281
1.00000361035
1.00000324304
1.00000288138
1.00000252558
1.00000217578
1.00000183037
1.00000148906
1.00000113756
1.00000078638
1.00001952354
1.00001913478
1.00001875809
1.00001839279
1.00001802837
1.00001766329
1.00001729564
1.0000169249
1.00001655079
1.00001617333
1.0000157927
1.00001540913
1.00001502292
1.00001463437
1.00001424376
1.00001385136
1.00001345743
1.00001306219
1.00001266586
1.00001226862
1.00001187064
1.00001147206
1.00001107304
1.00001067369
1.00001027414
1.00000987451
1.00000947491
1.00000907547
1.00000867631
1.00000827755
1.00000787935
1.00000748186
1.00000708525
1.00000668972
1.0000062955
1.00000590282
1.00000551197
1.00000512325
1.00000473697
1.00000435349
1.00000397314
1.00000359622
1.00000322296
1.00000285346
1.00000248751
1.00000212461
1.00000176301
1.00000140052
1.00000102806
1.00000063646
1.00001963728
1.00001922132
1.00001883227
1.00001845237
1.00001807614
1.00001770087
1.00001732493
1.00001694744
1.00001656794
1.00001618622
1.00001580225
1.0000154161
1.0000150279
1.00001463784
1.00001424609
1.00001385286
1.00001345833
1.00001306267
1.00001266606
1.00001226864
1.00001187056
1.00001147195
1.00001107293
1.00001067362
1.00001027413
1.00000987457
1.00000947503
1.00000907564
1.0000086765
1.00000827773
1.00000787946
1.00000748182
1.00000708496
1.00000668904
1.00000629425
1.00000590076
1.0000055088
1.00000511856
1.00000473026
1.00000434411
1.00000396027
1.00000357885
1.00000319985
1.0000028231
1.00000244814
1.00000207411
1.00000169941
1.00000132086
1.00000093374
1.00000051512
1.00001973193
1.00001929665
1.00001889884
1.0000185078
1.00001812206
1.00001773825
1.00001735506
1.00001697148
1.00001658695
1.00001620112
1.00001581382
1.000015425
1.00001503468
1.00001464295
1.00001424989
1.00001385565
1.00001346034
1.0000130641
1.00001266705
1.00001226931
1.000011871
1.00001147223
1.0000110731
1.00001067372
1.00001027417
1.00000987456
1.00000947498
1.00000907552
1.00000867628
1.00000827737
1.00000787888
1.00000748094
1.00000708366
1.00000668717
1.00000629161
1.00000589712
1.00000550383
1.00000511188
1.0000047214
1.00000433247
1.00000394514
1.00000355938
1.00000317501
1.00000279173
1.00000240894
1.00000202562
1.00000164047
1.0000012498
1.00000085236
1.00000041524
1.00001981181
1.00001936241
1.0000189583
1.00001855872
1.00001816538
1.00001777445
1.00001738501
1.00001699603
1.00001660691
1.00001621722
1.00001582671
1.00001543525
1.00001504278
1.00001464929
1.00001425483
1.00001385946
1.00001346325
1.0000130663
1.00001266869
1.00001227052
1.00001187187
1.00001147284
1.0000110735
1.00001067394
1.00001027425
1.0000098745
1.00000947477
1.00000907514
1.0000086757
1.00000827653
1.00000787771
1.00000747935
1.00000708152
1.00000668433
1.00000628787
1.00000589223
1.00000549751
1.00000510376
1.00000471105
1.00000431936
1.00000392867
1.00000353883
1.00000314959
1.00000276053
1.00000237105
1.00000198006
1.00000158661
1.00000118679
1.000000782
1.0000003319
1.00001987999
1.00001941998
1.00001901128
1.00001860512
1.00001820569
1.00001780887
1.00001741412
1.0000170204
1.00001662715
1.00001623391
1.00001584038
1.00001544638
1.00001505178
1.00001465652
1.00001426061
1.00001386404
1.00001346686
1.00001306912
1.00001267087
1.00001227218
1.00001187311
1.00001147372
1.00001107409
1.00001067428
1.00001027436
1.00000987438
1.00000947442
1.00000907454
1.00000867481
1.00000827529
1.00000787606
1.00000747717
1.0000070787
1.00000668071
1.00000628327
1.00000588642
1.0000054902
1.00000509464
1.00000469972
1.00000430538
1.00000391153
1.00000351795
1.00000312435
1.00000273027
1.00000233512
1.00000193786
1.00000153785
1.00000113108
1.00000072101
1.00000026158
1.00001993869
1.00001947052
1.00001905844
1.00001864715
1.00001824284
1.00001784116
1.00001744189
1.00001704406
1.00001664714
1.00001625068
1.00001585436
1.00001545795
1.00001506131
1.00001466433
1.00001426696
1.00001386918
1.00001347099
1.0000130724
1.00001267345
1.00001227418
1.00001187462
1.00001147482
1.00001107483
1.0000106747
1.00001027448
1.00000987421
1.00000947396
1.00000907376
1.00000867367
1.00000827374
1.00000787402
1.00000747454
1.00000707537
1.00000667653
1.00000627805
1.00000587996
1.00000548225
1.0000050849
1.00000468787
1.00000429104
1.00000389427
1.00000349732
1.00000309988
1.00000270148
1.00000230157
1.0000018992
1.000001494
1.00000108193
1.00000066802
1.00000020174
1.00001998954
1.00001951495
1.00001910033
1.00001868502
1.00001827678
1.0000178711
1.00001746802
1.00001706664
1.0000166665
1.00001626715
1.00001586828
1.00001546964
1.00001507107
1.00001467243
1.00001427364
1.00001387466
1.00001347545
1.000013076
1.00001267632
1.00001227642
1.00001187633
1.00001147607
1.00001107568
1.00001067518
1.00001027461
1.00000987401
1.0000094734
1.00000907284
1.00000867234
1.00000827195
1.00000787169
1.00000747159
1.00000707167
1.00000667196
1.00000627244
1.00000587311
1.00000547395
1.0000050749
1.00000467587
1.00000427674
1.00000387733
1.00000347738
1.00000307659
1.00000267449
1.00000227062
1.00000186409
1.00000145479
1.00000103865
1.00000062191
1.00000015051
1.00002003373
1.00001955401
1.00001913748
1.00001871899
1.00001830757
1.00001789859
1.00001749231
1.00001708789
1.00001668492
1.00001628301
1.00001588184
1.00001548116
1.0000150808
1.00001468059
1.00001428045
1.0000138803
1.00001348008
1.00001307977
1.00001267935
1.00001227882
1.00001187817
1.00001147743
1.00001107659
1.00001067569
1.00001027474
1.00000987377
1.00000947278
1.00000907181
1.00000867088
1.00000826999
1.00000786917
1.00000746843
1.00000706776
1.00000666717
1.00000626663
1.00000586611
1.00000546556
1.0000050649
1.00000466403
1.00000426281
1.00000386103
1.00000345845
1.00000305475
1.00000264953
1.00000224236
1.00000183244
1.00000141989
1.0000010006
1.00000058177
1.00000010646
1.00002007218
1.00001958831
1.00001917031
1.00001874928
1.0000183353
1.00001792359
1.00001751462
1.0000171076
1.0000167022
1.00001629803
1.0000158948
1.00001549228
1.00001509027
1.00001468862
1.0000142872
1.00001388594
1.00001348475
1.0000130836
1.00001268245
1.00001228128
1.00001188008
1.00001147883
1.00001107755
1.00001067623
1.00001027488
1.00000987351
1.00000947212
1.00000907073
1.00000866934
1.00000826795
1.00000786656
1.00000746517
1.00000706376
1.00000666231
1.00000626079
1.00000585914
1.00000545729
1.00000505515
1.00000465261
1.0000042495
1.00000384562
1.00000344074
1.00000303455
1.00000262669
1.0000022168
1.00000180413
1.00000138899
1.00000096725
1.00000054685
1.00000006854
1.0000201056
1.00001961834
1.00001919922
1.00001877615
1.00001836008
1.00001794612
1.0000175349
1.00001712567
1.00001671816
1.00001631202
1.00001590698
1.00001550281
1.00001509932
1.00001469633
1.00001429374
1.00001389144
1.00001348934
1.00001308739
1.00001268553
1.00001228374
1.00001188198
1.00001148024
1.0000110785
1.00001067676
1.000010275
1.00000987323
1.00000947144
1.00000906962
1.00000866777
1.00000826588
1.00000786394
1.00000746192
1.00000705979
1.00000665753
1.00000625508
1.00000585237
1.00000544933
1.00000504585
1.00000464179
1.00000423701
1.00000383129
1.00000342442
1.00000301612
1.00000260604
1.00000219389
1.000001779
1.0000013618
1.00000093814
1.00000051656
1.00000003591
1.00002013454
1.00001964449
1.0000192245
1.00001879978
1.00001838202
1.00001796621
1.0000175531
1.00001714201
1.0000167327
1.00001632486
1.00001591823
1.0000155126
1.00001510778
1.0000147036
1.00001429994
1.00001389668
1.00001349374
1.00001309103
1.00001268851
1.00001228613
1.00001188384
1.00001148162
1.00001107943
1.00001067727
1.00001027512
1.00000987295
1.00000947076
1.00000906852
1.00000866623
1.00000826385
1.00000786137
1.00000745875
1.00000705596
1.00000665293
1.00000624963
1.00000584595
1.00000544183
1.00000503714
1.00000463174
1.00000422549
1.00000381818
1.00000340961
1.00000299951
1.00000258758
1.00000217358
1.00000175689
1.00000133805
1.00000091288
1.00000049041
1.00000000791
1.00002015942
1.00001966708
1.00001924641
1.00001882037
1.00001840123
1.0000179839
1.00001756923
1.00001715657
1.00001674574
1.00001633644
1.00001592844
1.00001552153
1.00001511554
1.0000147103
1.00001430568
1.00001390156
1.00001349785
1.00001309445
1.00001269132
1.00001228838
1.0000118856
1.00001148292
1.00001108032
1.00001067776
1.00001027522
1.00000987268
1.0000094701
1.00000906747
1.00000866475
1.00000826192
1.00000785894
1.00000745576
1.00000705234
1.00000664862
1.00000624454
1.00000584
1.00000543491
1.00000502915
1.00000462258
1.00000421506
1.00000380639
1.00000339637
1.00000298476
1.0000025713
1.00000215579
1.00000173764
1.00000131749
1.00000089114
1.00000046799
0.999999984044
1.00002018059
1.00001968637
1.00001926517
1.00001883806
1.00001841781
1.00001799924
1.00001758329
1.00001716933
1.00001675722
1.00001634668
1.00001593751
1.00001552951
1.00001512251
1.00001471634
1.00001431087
1.00001390599
1.00001350159
1.00001309759
1.0000126939
1.00001229046
1.00001188722
1.00001148412
1.00001108113
1.00001067821
1.00001027532
1.00000987242
1.00000946949
1.00000906649
1.00000866338
1.00000826013
1.00000785668
1.000007453
1.00000704902
1.00000664469
1.00000623991
1.0000058346
1.00000542867
1.00000502198
1.00000461441
1.0000042058
1.00000379598
1.00000338474
1.00000297189
1.00000255718
1.00000214043
1.00000172111
1.00000129992
1.00000087264
1.00000044898
0.999999963893
1.00002019831
1.00001970256
1.00001928096
1.000018853
1.00001843186
1.00001801228
1.00001759529
1.00001718027
1.0000167671
1.00001635553
1.00001594538
1.00001553646
1.0000151286
1.00001472164
1.00001431545
1.00001390991
1.00001350491
1.00001310037
1.00001269619
1.00001229231
1.00001188867
1.0000114852
1.00001108186
1.00001067861
1.0000102754
1.00000987219
1.00000946893
1.0000090656
1.00000866214
1.00000825851
1.00000785466
1.00000745054
1.00000704607
1.00000664119
1.00000623582
1.00000582985
1.00000542319
1.00000501572
1.0000046073
1.00000419778
1.000003787
1.00000337477
1.0000029609
1.00000254516
1.00000212743
1.00000170718
1.00000128517
1.00000085716
1.00000043312
0.999999947138
1.0000202128
1.00001971583
1.00001929392
1.00001886529
1.00001844345
1.00001802308
1.00001760525
1.00001718937
1.00001677535
1.00001636296
1.00001595201
1.00001554233
1.00001513376
1.00001472614
1.00001431935
1.00001391326
1.00001350776
1.00001310275
1.00001269816
1.00001229391
1.00001188991
1.00001148613
1.00001108249
1.00001067895
1.00001027546
1.00000987198
1.00000946845
1.00000906483
1.00000866107
1.00000825712
1.00000785292
1.00000744841
1.00000704353
1.00000663819
1.00000623232
1.0000058258
1.00000541855
1.00000501043
1.00000460131
1.00000419105
1.00000377949
1.00000336645
1.00000295177
1.00000253522
1.00000211671
1.00000169573
1.00000127309
1.00000084453
1.00000042019
0.999999933524
1.00002022421
1.0000197263
1.00001930416
1.00001887502
1.00001845264
1.00001803166
1.00001761319
1.00001719665
1.00001678197
1.00001636892
1.00001595735
1.00001554707
1.00001513793
1.00001472979
1.00001432252
1.00001391598
1.00001351008
1.00001310471
1.00001269978
1.00001229521
1.00001189094
1.00001148689
1.00001108301
1.00001067923
1.00001027552
1.0000098718
1.00000946805
1.00000906419
1.00000866018
1.00000825597
1.00000785149
1.00000744667
1.00000704145
1.00000663575
1.00000622946
1.00000582251
1.00000541478
1.00000500614
1.00000459647
1.00000418563
1.00000377346
1.0000033598
1.00000294448
1.00000252732
1.00000210821
1.00000168668
1.00000126356
1.00000083458
1.00000041004
0.999999922853
1.00002023266
1.00001973407
1.00001931176
1.00001888226
1.0000184595
1.00001803807
1.00001761913
1.00001720211
1.00001678694
1.00001637341
1.00001596137
1.00001555065
1.00001514109
1.00001473256
1.00001432493
1.00001391806
1.00001351185
1.0000131062
1.00001270101
1.00001229621
1.00001189172
1.00001148748
1.0000110834
1.00001067945
1.00001027556
1.00000987167
1.00000946774
1.0000090637
1.0000086595
1.00000825509
1.00000785039
1.00000744534
1.00000703986
1.00000663388
1.00000622729
1.00000582001
1.00000541192
1.0000050029
1.00000459282
1.00000418155
1.00000376893
1.00000335481
1.00000293903
1.00000252142
1.00000210188
1.00000167995
1.0000012565
1.00000082722
1.00000040253
0.999999914973
1.00002023825
1.00001973921
1.0000193168
1.00001888705
1.00001846404
1.00001804233
1.00001762309
1.00001720575
1.00001679025
1.00001637641
1.00001596406
1.00001555305
1.00001514321
1.00001473442
1.00001432654
1.00001391945
1.00001351304
1.0000131072
1.00001270185
1.00001229689
1.00001189225
1.00001148787
1.00001108367
1.00001067959
1.00001027558
1.00000987158
1.00000946753
1.00000906337
1.00000865904
1.00000825449
1.00000784965
1.00000744444
1.00000703879
1.00000663262
1.00000622583
1.00000581833
1.00000541
1.00000500072
1.00000459037
1.00000417882
1.0000037659
1.00000335149
1.00000293541
1.0000025175
1.00000209768
1.0000016755
1.00000125182
1.00000082235
1.00000039758
0.999999909778
1.00002024103
1.00001974177
1.00001931931
1.00001888945
1.00001846631
1.00001804446
1.00001762506
1.00001720756
1.00001679191
1.00001637791
1.00001596541
1.00001555425
1.00001514428
1.00001473536
1.00001432736
1.00001392016
1.00001351364
1.00001310771
1.00001270227
1.00001229723
1.00001189252
1.00001148807
1.0000110838
1.00001067967
1.0000102756
1.00000987153
1.00000946742
1.0000090632
1.00000865881
1.00000825419
1.00000784927
1.00000744398
1.00000703825
1.00000663199
1.0000062251
1.00000581748
1.00000540903
1.00000499963
1.00000458915
1.00000417745
1.00000376439
1.00000334982
1.0000029336
1.00000251555
1.00000209559
1.00000167328
1.0000012495
1.00000081994
1.00000039511
0.999999907198
1.00002024103
1.00001974177
1.00001931931
1.00001888945
1.00001846631
1.00001804446
1.00001762506
1.00001720756
1.00001679191
1.00001637791
1.00001596541
1.00001555425
1.00001514428
1.00001473536
1.00001432736
1.00001392016
1.00001351364
1.00001310771
1.00001270227
1.00001229723
1.00001189252
1.00001148807
1.0000110838
1.00001067967
1.0000102756
1.00000987153
1.00000946742
1.0000090632
1.00000865881
1.00000825419
1.00000784927
1.00000744398
1.00000703825
1.00000663199
1.0000062251
1.00000581748
1.00000540903
1.00000499963
1.00000458915
1.00000417745
1.00000376439
1.00000334982
1.0000029336
1.00000251555
1.00000209559
1.00000167328
1.0000012495
1.00000081994
1.00000039511
0.999999907198
1.00002023825
1.00001973921
1.0000193168
1.00001888705
1.00001846404
1.00001804233
1.00001762309
1.00001720575
1.00001679025
1.00001637641
1.00001596406
1.00001555305
1.00001514321
1.00001473442
1.00001432654
1.00001391945
1.00001351304
1.0000131072
1.00001270185
1.00001229689
1.00001189225
1.00001148787
1.00001108367
1.00001067959
1.00001027558
1.00000987158
1.00000946753
1.00000906337
1.00000865904
1.00000825449
1.00000784965
1.00000744444
1.00000703879
1.00000663262
1.00000622583
1.00000581833
1.00000541
1.00000500072
1.00000459037
1.00000417882
1.0000037659
1.00000335149
1.00000293541
1.0000025175
1.00000209768
1.0000016755
1.00000125182
1.00000082235
1.00000039758
0.999999909778
1.00002023266
1.00001973407
1.00001931176
1.00001888226
1.0000184595
1.00001803807
1.00001761913
1.00001720211
1.00001678694
1.00001637341
1.00001596137
1.00001555065
1.00001514109
1.00001473256
1.00001432493
1.00001391806
1.00001351185
1.0000131062
1.00001270101
1.00001229621
1.00001189172
1.00001148748
1.0000110834
1.00001067945
1.00001027556
1.00000987167
1.00000946774
1.0000090637
1.0000086595
1.00000825509
1.00000785039
1.00000744534
1.00000703986
1.00000663388
1.00000622729
1.00000582001
1.00000541192
1.0000050029
1.00000459282
1.00000418155
1.00000376893
1.00000335481
1.00000293903
1.00000252142
1.00000210188
1.00000167995
1.0000012565
1.00000082722
1.00000040253
0.999999914973
1.00002022421
1.0000197263
1.00001930416
1.00001887502
1.00001845264
1.00001803166
1.00001761319
1.00001719665
1.00001678197
1.00001636892
1.00001595735
1.00001554707
1.00001513793
1.00001472979
1.00001432252
1.00001391598
1.00001351008
1.00001310471
1.00001269978
1.00001229521
1.00001189094
1.00001148689
1.00001108301
1.00001067923
1.00001027552
1.0000098718
1.00000946805
1.00000906419
1.00000866018
1.00000825597
1.00000785149
1.00000744667
1.00000704145
1.00000663575
1.00000622946
1.00000582251
1.00000541478
1.00000500614
1.00000459647
1.00000418563
1.00000377346
1.0000033598
1.00000294448
1.00000252732
1.00000210821
1.00000168668
1.00000126356
1.00000083458
1.00000041004
0.999999922853
1.0000202128
1.00001971583
1.00001929392
1.00001886529
1.00001844345
1.00001802308
1.00001760525
1.00001718937
1.00001677535
1.00001636296
1.00001595201
1.00001554233
1.00001513376
1.00001472614
1.00001431935
1.00001391326
1.00001350776
1.00001310275
1.00001269816
1.00001229391
1.00001188991
1.00001148613
1.00001108249
1.00001067895
1.00001027546
1.00000987198
1.00000946845
1.00000906483
1.00000866107
1.00000825712
1.00000785292
1.00000744841
1.00000704353
1.00000663819
1.00000623232
1.0000058258
1.00000541855
1.00000501043
1.00000460131
1.00000419105
1.00000377949
1.00000336645
1.00000295177
1.00000253522
1.00000211671
1.00000169573
1.00000127309
1.00000084453
1.00000042019
0.999999933524
1.00002019831
1.00001970256
1.00001928096
1.000018853
1.00001843186
1.00001801228
1.00001759529
1.00001718027
1.0000167671
1.00001635553
1.00001594538
1.00001553646
1.0000151286
1.00001472164
1.00001431545
1.00001390991
1.00001350491
1.00001310037
1.00001269619
1.00001229231
1.00001188867
1.0000114852
1.00001108186
1.00001067861
1.0000102754
1.00000987219
1.00000946893
1.0000090656
1.00000866214
1.00000825851
1.00000785466
1.00000745054
1.00000704607
1.00000664119
1.00000623582
1.00000582985
1.00000542319
1.00000501572
1.0000046073
1.00000419778
1.000003787
1.00000337477
1.0000029609
1.00000254516
1.00000212743
1.00000170718
1.00000128517
1.00000085716
1.00000043312
0.999999947138
1.00002018059
1.00001968637
1.00001926517
1.00001883806
1.00001841781
1.00001799924
1.00001758329
1.00001716933
1.00001675722
1.00001634668
1.00001593751
1.00001552951
1.00001512251
1.00001471634
1.00001431087
1.00001390599
1.00001350159
1.00001309759
1.0000126939
1.00001229046
1.00001188722
1.00001148412
1.00001108113
1.00001067821
1.00001027532
1.00000987242
1.00000946949
1.00000906649
1.00000866338
1.00000826013
1.00000785668
1.000007453
1.00000704902
1.00000664469
1.00000623991
1.0000058346
1.00000542867
1.00000502198
1.00000461441
1.0000042058
1.00000379598
1.00000338474
1.00000297189
1.00000255718
1.00000214043
1.00000172111
1.00000129992
1.00000087264
1.00000044898
0.999999963893
1.00002015942
1.00001966708
1.00001924641
1.00001882037
1.00001840123
1.0000179839
1.00001756923
1.00001715657
1.00001674574
1.00001633644
1.00001592844
1.00001552153
1.00001511554
1.0000147103
1.00001430568
1.00001390156
1.00001349785
1.00001309445
1.00001269132
1.00001228838
1.0000118856
1.00001148292
1.00001108032
1.00001067776
1.00001027522
1.00000987268
1.0000094701
1.00000906747
1.00000866475
1.00000826192
1.00000785894
1.00000745576
1.00000705234
1.00000664862
1.00000624454
1.00000584
1.00000543491
1.00000502915
1.00000462258
1.00000421506
1.00000380639
1.00000339637
1.00000298476
1.0000025713
1.00000215579
1.00000173764
1.00000131749
1.00000089114
1.00000046799
0.999999984044
1.00002013454
1.00001964449
1.0000192245
1.00001879978
1.00001838202
1.00001796621
1.0000175531
1.00001714201
1.0000167327
1.00001632486
1.00001591823
1.0000155126
1.00001510778
1.0000147036
1.00001429994
1.00001389668
1.00001349374
1.00001309103
1.00001268851
1.00001228613
1.00001188384
1.00001148162
1.00001107943
1.00001067727
1.00001027512
1.00000987295
1.00000947076
1.00000906852
1.00000866623
1.00000826385
1.00000786137
1.00000745875
1.00000705596
1.00000665293
1.00000624963
1.00000584595
1.00000544183
1.00000503714
1.00000463174
1.00000422549
1.00000381818
1.00000340961
1.00000299951
1.00000258758
1.00000217358
1.00000175689
1.00000133805
1.00000091288
1.00000049041
1.00000000791
1.0000201056
1.00001961834
1.00001919922
1.00001877615
1.00001836008
1.00001794612
1.0000175349
1.00001712567
1.00001671816
1.00001631202
1.00001590698
1.00001550281
1.00001509932
1.00001469633
1.00001429374
1.00001389144
1.00001348934
1.00001308739
1.00001268553
1.00001228374
1.00001188198
1.00001148024
1.0000110785
1.00001067676
1.000010275
1.00000987323
1.00000947144
1.00000906962
1.00000866777
1.00000826588
1.00000786394
1.00000746192
1.00000705979
1.00000665753
1.00000625508
1.00000585237
1.00000544933
1.00000504585
1.00000464179
1.00000423701
1.00000383129
1.00000342442
1.00000301612
1.00000260604
1.00000219389
1.000001779
1.0000013618
1.00000093814
1.00000051656
1.00000003591
1.00002007218
1.00001958831
1.00001917031
1.00001874928
1.0000183353
1.00001792359
1.00001751462
1.0000171076
1.0000167022
1.00001629803
1.0000158948
1.00001549228
1.00001509027
1.00001468862
1.0000142872
1.00001388594
1.00001348475
1.0000130836
1.00001268245
1.00001228128
1.00001188008
1.00001147883
1.00001107755
1.00001067623
1.00001027488
1.00000987351
1.00000947212
1.00000907073
1.00000866934
1.00000826795
1.00000786656
1.00000746517
1.00000706376
1.00000666231
1.00000626079
1.00000585914
1.00000545729
1.00000505515
1.00000465261
1.0000042495
1.00000384562
1.00000344074
1.00000303455
1.00000262669
1.0000022168
1.00000180413
1.00000138899
1.00000096725
1.00000054685
1.00000006854
1.00002003373
1.00001955401
1.00001913748
1.00001871899
1.00001830757
1.00001789859
1.00001749231
1.00001708789
1.00001668492
1.00001628301
1.00001588184
1.00001548116
1.0000150808
1.00001468059
1.00001428045
1.0000138803
1.00001348008
1.00001307977
1.00001267935
1.00001227882
1.00001187817
1.00001147743
1.00001107659
1.00001067569
1.00001027474
1.00000987377
1.00000947278
1.00000907181
1.00000867088
1.00000826999
1.00000786917
1.00000746843
1.00000706776
1.00000666717
1.00000626663
1.00000586611
1.00000546556
1.0000050649
1.00000466403
1.00000426281
1.00000386103
1.00000345845
1.00000305475
1.00000264953
1.00000224236
1.00000183244
1.00000141989
1.0000010006
1.00000058177
1.00000010646
1.00001998954
1.00001951495
1.00001910033
1.00001868502
1.00001827678
1.0000178711
1.00001746802
1.00001706664
1.0000166665
1.00001626715
1.00001586828
1.00001546964
1.00001507107
1.00001467243
1.00001427364
1.00001387466
1.00001347545
1.000013076
1.00001267632
1.00001227642
1.00001187633
1.00001147607
1.00001107568
1.00001067518
1.00001027461
1.00000987401
1.0000094734
1.00000907284
1.00000867234
1.00000827195
1.00000787169
1.00000747159
1.00000707167
1.00000667196
1.00000627244
1.00000587311
1.00000547395
1.0000050749
1.00000467587
1.00000427674
1.00000387733
1.00000347738
1.00000307659
1.00000267449
1.00000227062
1.00000186409
1.00000145479
1.00000103865
1.00000062191
1.00000015051
1.00001993869
1.00001947052
1.00001905844
1.00001864715
1.00001824284
1.00001784116
1.00001744189
1.00001704406
1.00001664714
1.00001625068
1.00001585436
1.00001545795
1.00001506131
1.00001466433
1.00001426696
1.00001386918
1.00001347099
1.0000130724
1.00001267345
1.00001227418
1.00001187462
1.00001147482
1.00001107483
1.0000106747
1.00001027448
1.00000987421
1.00000947396
1.00000907376
1.00000867367
1.00000827374
1.00000787402
1.00000747454
1.00000707537
1.00000667653
1.00000627805
1.00000587996
1.00000548225
1.0000050849
1.00000468787
1.00000429104
1.00000389427
1.00000349732
1.00000309988
1.00000270148
1.00000230157
1.0000018992
1.000001494
1.00000108193
1.00000066802
1.00000020174
1.00001987999
1.00001941998
1.00001901128
1.00001860512
1.00001820569
1.00001780887
1.00001741412
1.0000170204
1.00001662715
1.00001623391
1.00001584038
1.00001544638
1.00001505178
1.00001465652
1.00001426061
1.00001386404
1.00001346686
1.00001306912
1.00001267087
1.00001227218
1.00001187311
1.00001147372
1.00001107409
1.00001067428
1.00001027436
1.00000987438
1.00000947442
1.00000907454
1.00000867481
1.00000827529
1.00000787606
1.00000747717
1.0000070787
1.00000668071
1.00000628327
1.00000588642
1.0000054902
1.00000509464
1.00000469972
1.00000430538
1.00000391153
1.00000351795
1.00000312435
1.00000273027
1.00000233512
1.00000193786
1.00000153785
1.00000113108
1.00000072101
1.00000026158
1.00001981181
1.00001936241
1.0000189583
1.00001855872
1.00001816538
1.00001777445
1.00001738501
1.00001699603
1.00001660691
1.00001621722
1.00001582671
1.00001543525
1.00001504278
1.00001464929
1.00001425483
1.00001385946
1.00001346325
1.0000130663
1.00001266869
1.00001227052
1.00001187187
1.00001147284
1.0000110735
1.00001067394
1.00001027425
1.0000098745
1.00000947477
1.00000907514
1.0000086757
1.00000827653
1.00000787771
1.00000747935
1.00000708152
1.00000668433
1.00000628787
1.00000589223
1.00000549751
1.00000510376
1.00000471105
1.00000431936
1.00000392867
1.00000353883
1.00000314959
1.00000276053
1.00000237105
1.00000198006
1.00000158661
1.00000118679
1.000000782
1.0000003319
1.00001973193
1.00001929665
1.00001889884
1.0000185078
1.00001812206
1.00001773825
1.00001735506
1.00001697148
1.00001658695
1.00001620112
1.00001581382
1.000015425
1.00001503468
1.00001464295
1.00001424989
1.00001385565
1.00001346034
1.0000130641
1.00001266705
1.00001226931
1.000011871
1.00001147223
1.0000110731
1.00001067372
1.00001027417
1.00000987456
1.00000947498
1.00000907552
1.00000867628
1.00000827737
1.00000787888
1.00000748094
1.00000708366
1.00000668717
1.00000629161
1.00000589712
1.00000550383
1.00000511188
1.0000047214
1.00000433247
1.00000394514
1.00000355938
1.00000317501
1.00000279173
1.00000240894
1.00000202562
1.00000164047
1.0000012498