/*--------------------------------*- C++ -*----------------------------------*\
| =========                 |                                                 |
| \\      /  F ield         | OpenFOAM: The Open Source CFD Toolbox           |
|  \\    /   O peration     | Version:  2.4.0                                 |
|   \\  /    A nd           | Web:      www.OpenFOAM.org                      |
|    \\/     M anipulation  |                                                 |
\*---------------------------------------------------------------------------*/
FoamFile
{
    version     2.0;
    format      ascii;
    class       volScalarField;
    location    "200";
    object      rho;
}
// * * * * * * * * * * * * * * * * * * * * * * * * * * * * * * * * * * * * * //

dimensions      [1 -3 0 0 0 0 0];

internalField   nonuniform List<scalar> 
2500
(
0.809329456688
0.835331602012
0.851583439423
0.863025011395
0.871040934669
0.877416433568
0.882641069075
0.887133553465
0.891082998156
0.894630656603
0.89786440533
0.900849957048
0.90363487843
0.906255934204
0.908741639162
0.911114705201
0.913393377758
0.915592502951
0.917724243113
0.919798627417
0.921823957244
0.923807120557
0.925753834416
0.927668836245
0.929556035222
0.931418633306
0.93325922221
0.935079861179
0.936882138959
0.938667222345
0.940435892607
0.942188570216
0.94392532626
0.945645877549
0.947349555198
0.949035233573
0.950701177301
0.952344764726
0.953961937799
0.955546310684
0.957087564497
0.958569461859
0.959967754961
0.961251414506
0.962400424937
0.963444065769
0.964667384936
0.966645278278
0.971582800642
0.977523078223
0.822328278533
0.83837337996
0.850880645712
0.861238324003
0.869176653189
0.8757877934
0.881295742573
0.886050441565
0.890221094306
0.893952320021
0.89733775748
0.900449727598
0.903341022002
0.906052647517
0.908616376418
0.91105748805
0.91339625213
0.915649146454
0.9178296682
0.919948961969
0.92201628024
0.924039341012
0.926024603791
0.927977488331
0.929902549299
0.931803618185
0.933683920069
0.935546171378
0.937392663243
0.939225334373
0.941045836528
0.942855595843
0.944655872124
0.94644782046
0.948232554676
0.9500112234
0.951785084435
0.953555620499
0.955324616755
0.957094413938
0.958868012699
0.960650077054
0.962448075981
0.964277328923
0.966174495263
0.968213464499
0.970630948543
0.973712166157
0.978798464826
0.985017482442
0.842938581132
0.850367962714
0.857994806277
0.865457491083
0.871855799688
0.877572048717
0.882544611631
0.886964412661
0.890916086484
0.894499318566
0.897781189675
0.90081884655
0.903655587582
0.906326542518
0.908859622691
0.911277553691
0.913598853155
0.915838782863
0.918009978784
0.920122971842
0.922186575909
0.924208199319
0.926194089683
0.92814953225
0.930079011183
0.931986343276
0.933874790373
0.935747155981
0.93760587031
0.939453067649
0.941290659187
0.943120405086
0.944943987557
0.946763090869
0.948579483654
0.950395120487
0.952212224775
0.954033431834
0.95586179821
0.957701120697
0.95955569647
0.961432007716
0.963338735558
0.96529764935
0.967351870006
0.969623012587
0.97237595302
0.97622193154
0.982319031912
0.992344591306
0.864858187415
0.865006086779
0.867750600282
0.87183787854
0.876230997355
0.880659174495
0.884812270977
0.888687396156
0.8922660378
0.895585309405
0.8986749251
0.901569199323
0.904296850872
0.906883572379
0.909350913013
0.911717238877
0.913997991468
0.91620622758
0.918352972467
0.920447567982
0.922497943216
0.924510848349
0.926492045749
0.928446471454
0.930378370657
0.932291413526
0.934188795259
0.93607332438
0.937947502384
0.939813597919
0.941673717734
0.94352987819
0.945384077367
0.947238376469
0.949094980118
0.950956350981
0.952825295208
0.954705201364
0.956600101001
0.958515542122
0.960458556569
0.962442050448
0.964484378745
0.966632114411
0.968953540886
0.971650001135
0.974965799805
0.979731304549
0.986362417271
0.997995257268
0.886279314596
0.880702758751
0.879130676781
0.879955847026
0.882198514404
0.885111744611
0.888227099556
0.891364616923
0.894411206837
0.897336475337
0.900128294897
0.902793073346
0.905341030586
0.907785237147
0.910138453088
0.912412796827
0.914619172447
0.916767284163
0.918865637993
0.920921658526
0.922941800418
0.924931672996
0.926896154158
0.928839496996
0.930765425623
0.932677222214
0.934577806159
0.936469807498
0.938355636536
0.940237552506
0.942117733299
0.943998351748
0.945881658671
0.947770089156
0.949666378707
0.95157375713
0.953496126346
0.955438548013
0.95740749845
0.959412552909
0.961466455146
0.963592247018
0.965820163787
0.968220441788
0.970871127095
0.974015953763
0.977801911005
0.983110185592
0.989614265439
1.00096781487
0.905087347473
0.89556521673
0.890658265411
0.888754201693
0.889011584804
0.890418553276
0.89243474859
0.894748214061
0.897175002501
0.899624799328
0.902047038249
0.904420239168
0.9067354634
0.908992049269
0.911192898581
0.913342888393
0.915447531226
0.917512450494
0.919543022933
0.921544246048
0.923520676221
0.925476430687
0.92741521371
0.929340359877
0.931254883986
0.933161534931
0.935062851445
0.936961220001
0.93885893562
0.940758268276
0.94266153668
0.944571196782
0.946489944623
0.948420857408
0.950367552529
0.952334462305
0.954327084137
0.95635266481
0.958420507552
0.960544192842
0.962741186671
0.965041644535
0.967481136469
0.97013980616
0.973085076803
0.976560284696
0.980598166826
0.986013376882
0.992008061801
1.00206873315
0.920324509358
0.908614011871
0.901487667072
0.897542895419
0.896133971698
0.8961787036
0.897134315172
0.898611833335
0.900384047863
0.90231507434
0.904323521784
0.90636333345
0.908407929549
0.910443313265
0.912462480212
0.914462775948
0.916443956858
0.918407183053
0.920354340195
0.922287670012
0.924209541181
0.926122328712
0.928028350767
0.929929845792
0.931828973351
0.933727831632
0.935628486454
0.93753301011
0.939443529308
0.941362284239
0.943291699627
0.945234475871
0.947193697919
0.949172990761
0.951176691699
0.953210160444
0.955280037507
0.957395016408
0.959566068605
0.961808908334
0.964142934163
0.966600791388
0.969217394347
0.972071851591
0.975213455911
0.97886148855
0.982963224029
0.988213949469
0.99363599185
1.00223541573
0.931904483658
0.91944704753
0.911112239988
0.90580854416
0.903112521117
0.902013852342
0.902016072119
0.902704604881
0.903834266253
0.905240314198
0.906819810202
0.90850737234
0.910261702519
0.912056990029
0.913877093988
0.915712149428
0.917556241509
0.919406019312
0.921259765238
0.92311682347
0.924977224908
0.926841454569
0.928710304446
0.930584786112
0.932466082015
0.934355524477
0.936254594673
0.938164937971
0.94008839342
0.942027038514
0.943983248921
0.945959781491
0.947959875924
0.949987407272
0.952047050762
0.954144595877
0.956287180606
0.958484081068
0.960746815042
0.963091642428
0.965537921324
0.968117662731
0.970862147007
0.973843246604
0.977092393769
0.980794233629
0.984845654099
0.989811353296
0.994719535996
1.00205633544
0.940303895513
0.928100046239
0.919339992666
0.913259293372
0.909646501504
0.907645724251
0.906836170031
0.906818250128
0.907349230264
0.908251441872
0.909409548257
0.910744767685
0.912204616601
0.913753610858
0.915367736365
0.917030643409
0.918731145075
0.920461577414
0.922216696703
0.923992953476
0.925788001532
0.927600371046
0.929429247983
0.931274327822
0.933135719884
0.935013888285
0.936909619918
0.938824014228
0.94075849135
0.94271481892
0.94469515619
0.946702123679
0.948738891876
0.950809322777
0.952918119398
0.95507112772
0.957275536715
0.959540639434
0.961877818771
0.964302924529
0.966834214403
0.969501303892
0.972330716233
0.975384177122
0.978678218766
0.982361152165
0.986306394496
0.990962300148
0.995445812617
1.00180400043
0.94621148548
0.9348363205
0.92618006932
0.919767752578
0.915561202727
0.9128898345
0.911420879719
0.910796862344
0.910792359396
0.911230157315
0.911990618374
0.912987335699
0.914160267425
0.915466648243
0.916876105708
0.918366771926
0.919922791599
0.921532558356
0.923187521083
0.924881356744
0.926609397689
0.928368232502
0.930155426075
0.931969323313
0.933808911938
0.935673728558
0.937563797291
0.939479594597
0.941422035987
0.943392484215
0.945392776745
0.947425280273
0.949492964354
0.951599527682
0.953749528123
0.955948660154
0.958203914072
0.960524270231
0.96292057502
0.965407675919
0.968002107084
0.970730067
0.973612939086
0.976701366679
0.980000150634
0.983624717728
0.987441652241
0.991807211561
0.995947502649
1.00157725253
0.950308978849
0.940007482007
0.931762760276
0.925327102848
0.920785060237
0.917645962718
0.915664192118
0.914538684921
0.914070767969
0.914093718981
0.914490194791
0.91517127698
0.916072759654
0.917146980298
0.918358797957
0.9196819059
0.921096499881
0.922587511739
0.9241434002
0.92575527582
0.927416281553
0.929121145172
0.930865855885
0.932647428728
0.934463732979
0.936313368098
0.938195576073
0.940110183232
0.942057566564
0.944038643581
0.94605488275
0.94810834147
0.950201722438
0.952338480054
0.954522925875
0.956760469486
0.959057729505
0.961423131792
0.963866684083
0.966401804336
0.969042882825
0.971812161455
0.974725899357
0.977824054029
0.981102523824
0.984649690191
0.988334216536
0.992444614781
0.996307807615
1.00139903239
0.953160409933
0.943962212809
0.936272602493
0.93000511396
0.925318977359
0.921877925962
0.919514060753
0.917986732745
0.917128685729
0.916790279491
0.916861394603
0.917254779145
0.917905027485
0.918761782408
0.919786675876
0.92095005942
0.922228945886
0.923605344021
0.92506509937
0.926597020815
0.928192247588
0.929843776848
0.931546112975
0.933295003885
0.93508724277
0.936920519171
0.938793308561
0.940704793292
0.942654809692
0.944643819756
0.946672903881
0.948743780483
0.950858842414
0.953021238783
0.95523495079
0.957504986725
0.95983743979
0.962239975349
0.964721517006
0.967293756516
0.9699686947
0.972764474286
0.975692546023
0.978783383349
0.982026359582
0.985489047358
0.989046238991
0.992938781246
0.996576747774
1.0012654841
0.955183447074
0.947000713612
0.939902823135
0.933906575703
0.929208095858
0.925592701069
0.922956671383
0.921116723188
0.919937912913
0.919291191273
0.919076955429
0.919212758468
0.919634419252
0.920290795979
0.921141699438
0.92215518294
0.923305834162
0.924573291901
0.925941190633
0.927396331536
0.92892806564
0.930527818394
0.932188726934
0.933905359219
0.935673496684
0.93748996569
0.939352507837
0.941259682224
0.943210794402
0.945205850088
0.947245529565
0.949331187425
0.951464866872
0.953649353694
0.95588821937
0.958185965705
0.960548029063
0.962981155679
0.965493016147
0.968093422554
0.970791920425
0.973602722575
0.976532996071
0.979605284371
0.982804346942
0.986182481614
0.989621925977
0.993330763151
0.996784178981
1.00116637411
0.956664134348
0.94935986032
0.942828764023
0.93714601074
0.932518809952
0.928822067224
0.926001956275
0.923925528462
0.922488416205
0.921583210446
0.921122655356
0.921031230254
0.921247820297
0.921722055108
0.922413136613
0.923287758628
0.924318791237
0.925484036521
0.926765317151
0.928147726562
0.929619053312
0.931169321766
0.932790431111
0.934475867356
0.936220474053
0.938020269163
0.939872299541
0.941774526747
0.943725739149
0.945725488167
0.94777404424
0.949872376013
0.952022141552
0.954225713161
0.956486187043
0.95880747754
0.961194271134
0.963652298562
0.966187895748
0.968808973096
0.971522703339
0.974339735525
0.977263575074
0.980310413305
0.983461866801
0.986759383417
0.990092583094
0.993647187359
0.996948277284
1.00109212903
0.957787628457
0.951216193805
0.945196666998
0.939831353633
0.935323035709
0.931609072219
0.928672536858
0.926422198661
0.924780964047
0.923662355705
0.922992095858
0.922702802321
0.922737697512
0.923048362754
0.92359437688
0.924341874893
0.925262637393
0.926333118391
0.927533704953
0.928848072261
0.930262668937
0.931766289664
0.933349727736
0.935005488814
0.936727556197
0.938511197847
0.940352808421
0.942249780965
0.944200403735
0.946203779909
0.948259765624
0.950368928803
0.952532517412
0.95475245547
0.957031320371
0.959372389761
0.961779550927
0.964257483605
0.966811184236
0.969446738173
0.972169126897
0.97498589468
0.977897515815
0.980915249001
0.984018659592
0.987241661318
0.990480589604
0.993905818021
0.997080478774
1.00103551561
0.95866914661
0.952696493914
0.947122206273
0.942056283639
0.937689067527
0.933999345689
0.930996315116
0.928621847926
0.926822116424
0.925529759978
0.924683207267
0.924223674828
0.924099474032
0.92426495235
0.924680813502
0.92531327895
0.926133570545
0.92711722241
0.928243526028
0.92949500689
0.930856984973
0.932317191395
0.933865444007
0.93549337033
0.937194173035
0.938962431397
0.940793934048
0.942685538927
0.944635056534
0.94664115439
0.948703278105
0.950821590706
0.952996918873
0.955230721632
0.957525037666
0.959882489667
0.962306155791
0.96479967901
0.96736676926
0.97001182709
0.972737878507
0.975549841916
0.978445745369
0.981433104328
0.984490218565
0.987645849795
0.99080218201
0.994118895698
0.997188265582
1.00099151249
0.959378738584
0.953889824719
0.948693926717
0.94389815584
0.93967726666
0.936036245441
0.93300204025
0.930541901307
0.928621159417
0.927189178122
0.926196203434
0.925591932072
0.9253300732
0.925368221492
0.925668721849
0.926198367736
0.926928247191
0.927833333375
0.928892118245
0.930086218982
0.931400022209
0.932820352929
0.934336180129
0.935938354681
0.937619379639
0.93937320977
0.94119507789
0.943081345308
0.945029373302
0.94703741378
0.949104514688
0.951230441138
0.953415601159
0.955660989336
0.95796810719
0.960338930766
0.962775751127
0.965281225922
0.967857871294
0.970508578976
0.973234676904
0.976038913347
0.978917383266
0.981874811104
0.984888779778
0.987984562971
0.991069315356
0.994295112108
0.997276726422
1.00095675339
0.959958741532
0.954858131254
0.94997832805
0.945418895055
0.941338721441
0.937758553475
0.93471690959
0.93219995739
0.930188353423
0.928645600488
0.927532499379
0.926806695249
0.926427248064
0.926355193286
0.92655482018
0.926993825641
0.927643481988
0.928478487675
0.929476783255
0.930619288207
0.931889632184
0.933273880651
0.934760274868
0.936338988766
0.9380019075
0.939742427963
0.941555281148
0.943436375115
0.945382656442
0.947391988674
0.949463043566
0.951595205699
0.953788479671
0.956043411448
0.958360985316
0.960742560762
0.963189688674
0.965704119356
0.968287293192
0.970940785044
0.973664482319
0.97645937391
0.979320054925
0.982249198014
0.985224039266
0.988267505472
0.991290909216
0.994440795659
0.99734944231
1.00092900002
0.960435063781
0.955644469635
0.95102486174
0.946667104114
0.942715472888
0.93919966613
0.936165405386
0.93361262999
0.931533954461
0.929904493882
0.928694157528
0.92786773667
0.927389325242
0.927223357085
0.927336182175
0.927696590696
0.928276255036
0.929049813223
0.929994853538
0.931091775951
0.932323608946
0.933675792661
0.93513595509
0.93669369013
0.938340346627
0.940068832005
0.941873432582
0.943749650867
0.945694058652
0.947704164871
0.949778294379
0.951915477933
0.954115343073
0.956378016192
0.958703999733
0.961094084208
0.963549146103
0.966070124385
0.968657516193
0.971311774192
0.974031589936
0.97681655063
0.979660107206
0.982563442315
0.985503683054
0.98850218316
0.991473686996
0.994560640683
0.99740900153
1.00090675265
0.960824023198
0.956278936301
0.951870128367
0.947680411586
0.943841416361
0.940387563186
0.937368817598
0.934794935112
0.9326676471
0.9309713526
0.929683573068
0.928775285714
0.928215108657
0.927970646579
0.928010269524
0.928303926178
0.92882381107
0.929544648066
0.930443824678
0.931501367239
0.932699837741
0.934024172096
0.935461491995
0.937000904627
0.938633303271
0.940351175354
0.942148422188
0.944020192099
0.945962726729
0.947973219949
0.950049685944
0.952190836632
0.954395958597
0.956664798996
0.958997426591
0.961394124243
0.963855173606
0.966380809798
0.968970725844
0.97162444145
0.974339677357
0.9771149239
0.979942774001
0.982823341294
0.985733785593
0.98869440959
0.991622747514
0.994658169835
0.997457308951
1.00088899039
0.961136291232
0.956782731535
0.952541119659
0.948487601859
0.94474338689
0.94134512847
0.938345120323
0.935759968422
0.9335981873
0.931851390093
0.930503248098
0.92952988814
0.92890381323
0.928595432307
0.928574968091
0.928813487487
0.929283746894
0.929960640768
0.930821463178
0.931845982021
0.933016406997
0.934317277829
0.935735309121
0.937259210688
0.938879499632
0.940588313402
0.942379229925
0.944247097803
0.946187877239
0.948198491647
0.95027668685
0.95242089807
0.954630115351
0.956903756354
0.959241514593
0.961643237077
0.96410869989
0.966637548375
0.969228811936
0.971881256755
0.974591835878
0.977358199648
0.980172310266
0.983033525468
0.985919110764
0.988848670161
0.991741958569
0.994736036297
0.997495778644
1.00087500655
0.961379087494
0.957170849196
0.953057595979
0.949110363562
0.945442186839
0.94209058789
0.939109016483
0.936518737462
0.934333158054
0.932549299227
0.931155597431
0.930132270257
0.929454985373
0.929096489436
0.929028592104
0.929223352517
0.929654059376
0.930295809341
0.93112587135
0.932123842476
0.933271675553
0.93455360994
0.935956044944
0.937467378325
0.939077828821
0.940779254108
0.942564971837
0.944429587866
0.946368833113
0.948379409415
0.950458841682
0.95260533659
0.954817638917
0.957094894145
0.959436486958
0.961841908035
0.964310523619
0.966841506572
0.969433361399
0.972084268855
0.974790596265
0.977549370203
0.980352101881
0.983197626129
0.986063338898
0.988968385229
0.991834230383
0.994796226412
0.997525457914
1.00086430674
0.961557374964
0.957453813162
0.953433767455
0.949564637252
0.945953455407
0.94263794554
0.939672051625
0.937080079155
0.934878795742
0.933069058535
0.931642775647
0.930583204426
0.929868410471
0.929472943051
0.929369860082
0.929532020534
0.929933160422
0.930548566731
0.931355519054
0.93233350788
0.933464308471
0.934731945007
0.936122586685
0.937624400857
0.939227384144
0.940923184606
0.942704923821
0.944567023887
0.946505041341
0.948515508791
0.950595781821
0.95274389152
0.954958394082
0.957238225968
0.959582535426
0.961990541775
0.964461301248
0.966993632628
0.969585651026
0.972235109001
0.9749379517
0.977690765739
0.98048475449
0.983318405295
0.986169236266
0.989056099741
0.991901706182
0.994840197714
0.997547109143
1.00085654635
0.96167450573
0.95763877479
0.953679445014
0.94986160275
0.946288350476
0.942997360866
0.940042743709
0.937450625472
0.93523986832
0.933413780132
0.931966530857
0.930883386909
0.930144021043
0.929724205669
0.929597857343
0.929738394227
0.930119873325
0.930717727015
0.931509256227
0.93247389085
0.933593295127
0.934851354741
0.936234088624
0.937729512337
0.939327475268
0.941019485867
0.94279853461
0.944658920279
0.946596082009
0.948606438138
0.950687229632
0.95283636854
0.955052283148
0.957333768286
0.959679812371
0.962089451984
0.964561535619
0.967094646372
0.969686642064
0.972334995203
0.975035377792
0.977784096283
0.980572162963
0.983397853722
0.986238778863
0.989113617863
0.991945893842
0.994868972962
0.997561264223
1.0008514923
0.961732568346
0.957730186338
0.953800795377
0.950008361253
0.946454044271
0.943175441524
0.940226699353
0.937634794914
0.935419594335
0.93358559851
0.932128091782
0.931033339101
0.930281818741
0.929849920673
0.929711998472
0.929841757571
0.930213422273
0.930802503221
0.931586316317
0.932544264327
0.933657958232
0.934911215978
0.936289982336
0.937782197529
0.939377637594
0.941067741224
0.94284543323
0.944704950497
0.946641673118
0.948651961855
0.950732999849
0.952882639034
0.955099243091
0.957381535362
0.959728423699
0.962138852796
0.964611566989
0.967145031689
0.969736976815
0.972384736519
0.975083848752
0.977830483791
0.980615562556
0.983437261058
0.98627323876
0.989142094966
0.99196775396
0.994883202523
0.997568260067
1.00084899995
0.961732568346
0.957730186338
0.953800795377
0.950008361253
0.946454044271
0.943175441524
0.940226699353
0.937634794914
0.935419594335
0.93358559851
0.932128091782
0.931033339101
0.930281818741
0.929849920673
0.929711998472
0.929841757571
0.930213422273
0.930802503221
0.931586316317
0.932544264327
0.933657958232
0.934911215978
0.936289982336
0.937782197529
0.939377637594
0.941067741224
0.94284543323
0.944704950497
0.946641673118
0.948651961855
0.950732999849
0.952882639034
0.955099243091
0.957381535362
0.959728423699
0.962138852796
0.964611566989
0.967145031689
0.969736976815
0.972384736519
0.975083848752
0.977830483791
0.980615562556
0.983437261058
0.98627323876
0.989142094966
0.99196775396
0.994883202523
0.997568260067
1.00084899995
0.96167450573
0.95763877479
0.953679445014
0.94986160275
0.946288350476
0.942997360866
0.940042743709
0.937450625472
0.93523986832
0.933413780132
0.931966530857
0.930883386909
0.930144021043
0.929724205669
0.929597857343
0.929738394227
0.930119873325
0.930717727015
0.931509256227
0.93247389085
0.933593295127
0.934851354741
0.936234088624
0.937729512337
0.939327475268
0.941019485867
0.94279853461
0.944658920279
0.946596082009
0.948606438138
0.950687229632
0.95283636854
0.955052283148
0.957333768286
0.959679812371
0.962089451984
0.964561535619
0.967094646372
0.969686642064
0.972334995203
0.975035377792
0.977784096283
0.980572162963
0.983397853722
0.986238778863
0.989113617863
0.991945893842
0.994868972962
0.997561264223
1.0008514923
0.961557374964
0.957453813162
0.953433767455
0.949564637252
0.945953455407
0.94263794554
0.939672051625
0.937080079155
0.934878795742
0.933069058535
0.931642775647
0.930583204426
0.929868410471
0.929472943051
0.929369860082
0.929532020534
0.929933160422
0.930548566731
0.931355519054
0.93233350788
0.933464308471
0.934731945007
0.936122586685
0.937624400857
0.939227384144
0.940923184606
0.942704923821
0.944567023887
0.946505041341
0.948515508791
0.950595781821
0.95274389152
0.954958394082
0.957238225968
0.959582535426
0.961990541775
0.964461301248
0.966993632628
0.969585651026
0.972235109001
0.9749379517
0.977690765739
0.98048475449
0.983318405295
0.986169236266
0.989056099741
0.991901706182
0.994840197714
0.997547109143
1.00085654635
0.961379087494
0.957170849196
0.953057595979
0.949110363562
0.945442186839
0.94209058789
0.939109016483
0.936518737462
0.934333158054
0.932549299227
0.931155597431
0.930132270257
0.929454985373
0.929096489436
0.929028592104
0.929223352517
0.929654059376
0.930295809341
0.93112587135
0.932123842476
0.933271675553
0.93455360994
0.935956044944
0.937467378325
0.939077828821
0.940779254108
0.942564971837
0.944429587866
0.946368833113
0.948379409415
0.950458841682
0.95260533659
0.954817638917
0.957094894145
0.959436486958
0.961841908035
0.964310523619
0.966841506572
0.969433361399
0.972084268855
0.974790596265
0.977549370203
0.980352101881
0.983197626129
0.986063338898
0.988968385229
0.991834230383
0.994796226412
0.997525457914
1.00086430674
0.961136291232
0.956782731535
0.952541119659
0.948487601859
0.94474338689
0.94134512847
0.938345120323
0.935759968422
0.9335981873
0.931851390093
0.930503248098
0.92952988814
0.92890381323
0.928595432307
0.928574968091
0.928813487487
0.929283746894
0.929960640768
0.930821463178
0.931845982021
0.933016406997
0.934317277829
0.935735309121
0.937259210688
0.938879499632
0.940588313402
0.942379229925
0.944247097803
0.946187877239
0.948198491647
0.95027668685
0.95242089807
0.954630115351
0.956903756354
0.959241514593
0.961643237077
0.96410869989
0.966637548375
0.969228811936
0.971881256755
0.974591835878
0.977358199648
0.980172310266
0.983033525468
0.985919110764
0.988848670161
0.991741958569
0.994736036297
0.997495778644
1.00087500655
0.960824023198
0.956278936301
0.951870128367
0.947680411586
0.943841416361
0.940387563186
0.937368817598
0.934794935112
0.9326676471
0.9309713526
0.929683573068
0.928775285714
0.928215108657
0.927970646579
0.928010269524
0.928303926178
0.92882381107
0.929544648066
0.930443824678
0.931501367239
0.932699837741
0.934024172096
0.935461491995
0.937000904627
0.938633303271
0.940351175354
0.942148422188
0.944020192099
0.945962726729
0.947973219949
0.950049685944
0.952190836632
0.954395958597
0.956664798996
0.958997426591
0.961394124243
0.963855173606
0.966380809798
0.968970725844
0.97162444145
0.974339677357
0.9771149239
0.979942774001
0.982823341294
0.985733785593
0.98869440959
0.991622747514
0.994658169835
0.997457308951
1.00088899039
0.960435063781
0.955644469635
0.95102486174
0.946667104114
0.942715472888
0.93919966613
0.936165405386
0.93361262999
0.931533954461
0.929904493882
0.928694157528
0.92786773667
0.927389325242
0.927223357085
0.927336182175
0.927696590696
0.928276255036
0.929049813223
0.929994853538
0.931091775951
0.932323608946
0.933675792661
0.93513595509
0.93669369013
0.938340346627
0.940068832005
0.941873432582
0.943749650867
0.945694058652
0.947704164871
0.949778294379
0.951915477933
0.954115343073
0.956378016192
0.958703999733
0.961094084208
0.963549146103
0.966070124385
0.968657516193
0.971311774192
0.974031589936
0.97681655063
0.979660107206
0.982563442315
0.985503683054
0.98850218316
0.991473686996
0.994560640683
0.99740900153
1.00090675265
0.959958741532
0.954858131254
0.94997832805
0.945418895055
0.941338721441
0.937758553475
0.93471690959
0.93219995739
0.930188353423
0.928645600488
0.927532499379
0.926806695249
0.926427248064
0.926355193286
0.92655482018
0.926993825641
0.927643481988
0.928478487675
0.929476783255
0.930619288207
0.931889632184
0.933273880651
0.934760274868
0.936338988766
0.9380019075
0.939742427963
0.941555281148
0.943436375115
0.945382656442
0.947391988674
0.949463043566
0.951595205699
0.953788479671
0.956043411448
0.958360985316
0.960742560762
0.963189688674
0.965704119356
0.968287293192
0.970940785044
0.973664482319
0.97645937391
0.979320054925
0.982249198014
0.985224039266
0.988267505472
0.991290909216
0.994440795659
0.99734944231
1.00092900002
0.959378738584
0.953889824719
0.948693926717
0.94389815584
0.93967726666
0.936036245441
0.93300204025
0.930541901307
0.928621159417
0.927189178122
0.926196203434
0.925591932072
0.9253300732
0.925368221492
0.925668721849
0.926198367736
0.926928247191
0.927833333375
0.928892118245
0.930086218982
0.931400022209
0.932820352929
0.934336180129
0.935938354681
0.937619379639
0.93937320977
0.94119507789
0.943081345308
0.945029373302
0.94703741378
0.949104514688
0.951230441138
0.953415601159
0.955660989336
0.95796810719
0.960338930766
0.962775751127
0.965281225922
0.967857871294
0.970508578976
0.973234676904
0.976038913347
0.978917383266
0.981874811104
0.984888779778
0.987984562971
0.991069315356
0.994295112108
0.997276726422
1.00095675339
0.95866914661
0.952696493914
0.947122206273
0.942056283639
0.937689067527
0.933999345689
0.930996315116
0.928621847926
0.926822116424
0.925529759978
0.924683207267
0.924223674828
0.924099474032
0.92426495235
0.924680813502
0.92531327895
0.926133570545
0.92711722241
0.928243526028
0.92949500689
0.930856984973
0.932317191395
0.933865444007
0.93549337033
0.937194173035
0.938962431397
0.940793934048
0.942685538927
0.944635056534
0.94664115439
0.948703278105
0.950821590706
0.952996918873
0.955230721632
0.957525037666
0.959882489667
0.962306155791
0.96479967901
0.96736676926
0.97001182709
0.972737878507
0.975549841916
0.978445745369
0.981433104328
0.984490218565
0.987645849795
0.99080218201
0.994118895698
0.997188265582
1.00099151249
0.957787628457
0.951216193805
0.945196666998
0.939831353633
0.935323035709
0.931609072219
0.928672536858
0.926422198661
0.924780964047
0.923662355705
0.922992095858
0.922702802321
0.922737697512
0.923048362754
0.92359437688
0.924341874893
0.925262637393
0.926333118391
0.927533704953
0.928848072261
0.930262668937
0.931766289664
0.933349727736
0.935005488814
0.936727556197
0.938511197847
0.940352808421
0.942249780965
0.944200403735
0.946203779909
0.948259765624
0.950368928803
0.952532517412
0.95475245547
0.957031320371
0.959372389761
0.961779550927
0.964257483605
0.966811184236
0.969446738173
0.972169126897
0.97498589468
0.977897515815
0.980915249001
0.984018659592
0.987241661318
0.990480589604
0.993905818021
0.997080478774
1.00103551561
0.956664134348
0.94935986032
0.942828764023
0.93714601074
0.932518809952
0.928822067224
0.926001956275
0.923925528462
0.922488416205
0.921583210446
0.921122655356
0.921031230254
0.921247820297
0.921722055108
0.922413136613
0.923287758628
0.924318791237
0.925484036521
0.926765317151
0.928147726562
0.929619053312
0.931169321766
0.932790431111
0.934475867356
0.936220474053
0.938020269163
0.939872299541
0.941774526747
0.943725739149
0.945725488167
0.94777404424
0.949872376013
0.952022141552
0.954225713161
0.956486187043
0.95880747754
0.961194271134
0.963652298562
0.966187895748
0.968808973096
0.971522703339
0.974339735525
0.977263575074
0.980310413305
0.983461866801
0.986759383417
0.990092583094
0.993647187359
0.996948277284
1.00109212903
0.955183447074
0.947000713612
0.939902823135
0.933906575703
0.929208095858
0.925592701069
0.922956671383
0.921116723188
0.919937912913
0.919291191273
0.919076955429
0.919212758468
0.919634419252
0.920290795979
0.921141699438
0.92215518294
0.923305834162
0.924573291901
0.925941190633
0.927396331536
0.92892806564
0.930527818394
0.932188726934
0.933905359219
0.935673496684
0.93748996569
0.939352507837
0.941259682224
0.943210794402
0.945205850088
0.947245529565
0.949331187425
0.951464866872
0.953649353694
0.95588821937
0.958185965705
0.960548029063
0.962981155679
0.965493016147
0.968093422554
0.970791920425
0.973602722575
0.976532996071
0.979605284371
0.982804346942
0.986182481614
0.989621925977
0.993330763151
0.996784178981
1.00116637411
0.953160409933
0.943962212809
0.936272602493
0.93000511396
0.925318977359
0.921877925962
0.919514060753
0.917986732745
0.917128685729
0.916790279491
0.916861394603
0.917254779145
0.917905027485
0.918761782408
0.919786675876
0.92095005942
0.922228945886
0.923605344021
0.92506509937
0.926597020815
0.928192247588
0.929843776848
0.931546112975
0.933295003885
0.93508724277
0.936920519171
0.938793308561
0.940704793292
0.942654809692
0.944643819756
0.946672903881
0.948743780483
0.950858842414
0.953021238783
0.95523495079
0.957504986725
0.95983743979
0.962239975349
0.964721517006
0.967293756516
0.9699686947
0.972764474286
0.975692546023
0.978783383349
0.982026359582
0.985489047358
0.989046238991
0.992938781246
0.996576747774
1.0012654841
0.950308978849
0.940007482007
0.931762760276
0.925327102848
0.920785060237
0.917645962718
0.915664192118
0.914538684921
0.914070767969
0.914093718981
0.914490194791
0.91517127698
0.916072759654