/*--------------------------------*- C++ -*----------------------------------*\
| =========                 |                                                 |
| \\      /  F ield         | OpenFOAM: The Open Source CFD Toolbox           |
|  \\    /   O peration     | Version:  2.4.0                                 |
|   \\  /    A nd           | Web:      www.OpenFOAM.org                      |
|    \\/     M anipulation  |                                                 |
\*---------------------------------------------------------------------------*/
FoamFile
{
    version     2.0;
    format      ascii;
    class       volVectorField;
    location    "200";
    object      U;
}
// * * * * * * * * * * * * * * * * * * * * * * * * * * * * * * * * * * * * * //

dimensions      [0 1 -1 0 0 0 0];

internalField   nonuniform List<vector> 
2500
(
(-0.112385521505 -0.0138005228082 0)
(-0.0855495832011 -0.00940360104448 0)
(-0.070310760626 -0.0048123341972 0)
(-0.0615798964773 -0.00270613750032 0)
(-0.0560414557795 -0.00161128584974 0)
(-0.0523519725303 -0.00105442909344 0)
(-0.049710493331 -0.000731519659161 0)
(-0.0477494214646 -0.000533707833044 0)
(-0.0462449675537 -0.000401107509474 0)
(-0.0450696657331 -0.000307732246865 0)
(-0.0441396341122 -0.000238556025152 0)
(-0.0433992691938 -0.00018562804726 0)
(-0.0428090997078 -0.000143949224727 0)
(-0.0423405173165 -0.000110424949924 0)
(-0.0419720677663 -8.29534443282e-05 0)
(-0.0416873827997 -6.00893125642e-05 0)
(-0.0414737508769 -4.07874930368e-05 0)
(-0.0413211978161 -2.42773497964e-05 0)
(-0.0412218378054 -9.97289667156e-06 0)
(-0.0411694211219 2.58040183617e-06 0)
(-0.0411590055993 1.37431814976e-05 0)
(-0.0411867173717 2.38071179862e-05 0)
(-0.0412495737533 3.30129184865e-05 0)
(-0.0413453523378 4.15632073113e-05 0)
(-0.0414724947846 4.96321849328e-05 0)
(-0.0416300378538 5.7372976986e-05 0)
(-0.0418175665399 6.49234158852e-05 0)
(-0.0420351860013 7.24106961742e-05 0)
(-0.0422835102731 7.9955226155e-05 0)
(-0.0425636668053 8.76738517531e-05 0)
(-0.0428773167821 9.56825346693e-05 0)
(-0.0432266919102 0.000104098334734 0)
(-0.0436146492187 0.000113040369052 0)
(-0.0440447455971 0.000122628558056 0)
(-0.0445213348133 0.000132978539933 0)
(-0.0450496875595 0.000144187738418 0)
(-0.045636138271 0.0001563079324 0)
(-0.046288253213 0.000169288319845 0)
(-0.0470150407674 0.00018288908089 0)
(-0.0478272154867 0.00019653825307 0)
(-0.0487377199586 0.000209246480727 0)
(-0.0497628748847 0.000219675931153 0)
(-0.0509254969362 0.00022731921425 0)
(-0.0522632425236 0.000235929384236 0)
(-0.053846925592 0.000264130067435 0)
(-0.0558319030958 0.000368303121031 0)
(-0.0585210177785 0.000691407742865 0)
(-0.0626372235888 0.00153570304554 0)
(-0.0690703498194 0.00357142970827 0)
(-0.0807034055731 0.00816776084069 0)
(-0.256880129552 -0.0429325430349 0)
(-0.226631085165 -0.0309197582993 0)
(-0.205649790382 -0.0182758892509 0)
(-0.190670319469 -0.0119228868724 0)
(-0.179642420111 -0.00802730202506 0)
(-0.171438033324 -0.00572995439784 0)
(-0.16516895693 -0.00421900427906 0)
(-0.160308998555 -0.00319097891631 0)
(-0.156486020888 -0.00244759256755 0)
(-0.153454254933 -0.00189196542747 0)
(-0.151038774112 -0.00146191674982 0)
(-0.14911490393 -0.00112095199052 0)
(-0.14759034428 -0.000844581143244 0)
(-0.146395738863 -0.000616567037253 0)
(-0.145477836325 -0.000425389863225 0)
(-0.144795236931 -0.000262763303401 0)
(-0.144315386822 -0.000122491562457 0)
(-0.144012532526 1.51538804838e-07 0)
(-0.143866249243 0.00010886890652 0)
(-0.143860384291 0.000206622408218 0)
(-0.143982279146 0.000295835524599 0)
(-0.144222195038 0.000378534376955 0)
(-0.144572886211 0.000456452442238 0)
(-0.145029285682 0.000531109139757 0)
(-0.145588278627 0.000603871619588 0)
(-0.14624854708 0.000676004995049 0)
(-0.147010475087 0.000748715250316 0)
(-0.147876107887 0.000823187784046 0)
(-0.148849162102 0.000900624099677 0)
(-0.149935087083 0.000982278797183 0)
(-0.151141180746 0.00106949905934 0)
(-0.152476766623 0.00116376881352 0)
(-0.15395344376 0.00126676040997 0)
(-0.155585426353 0.00138039641834 0)
(-0.157390001411 0.00150692672245 0)
(-0.159388142552 0.00164902385128 0)
(-0.161605353394 0.00180991256401 0)
(-0.164072830561 0.00199354036726 0)
(-0.166829161532 0.00220487212441 0)
(-0.16992276717 0.00245036229082 0)
(-0.17341572427 0.00273908648015 0)
(-0.177389306128 0.00308488053393 0)
(-0.181952590718 0.00351196905826 0)
(-0.18725385112 0.0040653219453 0)
(-0.193491929713 0.00483626328478 0)
(-0.200929150641 0.00600106296838 0)
(-0.209833226266 0.00790957000648 0)
(-0.220500048099 0.011145145793 0)
(-0.232553543982 0.0167273659965 0)
(-0.246113733548 0.0250265233803 0)
(-0.324278219384 -0.0622387500265 0)
(-0.307514736743 -0.0476617888233 0)
(-0.293048114837 -0.0313359594273 0)
(-0.280645537398 -0.022294458595 0)
(-0.270499761893 -0.015976836275 0)
(-0.262361537054 -0.0118883792138 0)
(-0.255837130281 -0.0089867303273 0)
(-0.250609743581 -0.00690012145639 0)
(-0.246411670497 -0.00532761178931 0)
(-0.243043042849 -0.00411465162335 0)
(-0.24034911417 -0.00315254493341 0)
(-0.238212065957 -0.00237431802348 0)
(-0.236540303511 -0.00173282702933 0)
(-0.235262267662 -0.0011956953923 0)
(-0.23432137153 -0.000739247972127 0)
(-0.233672610623 -0.00034601139318 0)
(-0.233280010453 -2.62436485812e-06 0)
(-0.233114796658 0.000301315604009 0)
(-0.233154022468 0.000574113027911 0)
(-0.233379547166 0.000822530580952 0)
(-0.233777262076 0.00105219838937 0)
(-0.234336505198 0.00126790520369 0)
(-0.235049618283 0.00147381950956 0)
(-0.235911616178 0.0016736594527 0)
(-0.236919946382 0.00187082982269 0)
(-0.238074323822 0.00206853650595 0)
(-0.239376630565 0.00226988711014 0)
(-0.240830873967 0.00247798410072 0)
(-0.242443199791 0.00269601608409 0)
(-0.244221959397 0.00292735240051 0)
(-0.246177832757 0.00317564658816 0)
(-0.248324011183 0.00344495485788 0)
(-0.250676447453 0.00373987785867 0)
(-0.253254182344 0.00406573543659 0)
(-0.256079765983 0.00442879138772 0)
(-0.25917978713 0.0048365465467 0)
(-0.262585557149 0.0052981472506 0)
(-0.266333944813 0.00582494917923 0)
(-0.270468496209 0.00643140340031 0)
(-0.275040647698 0.00713634909004 0)
(-0.280111425004 0.00796537302374 0)
(-0.285752182057 0.00895422269928 0)
(-0.29204541399 0.0101558609341 0)
(-0.299077649691 0.0116487656878 0)
(-0.306926594465 0.0135564936206 0)
(-0.315609408644 0.0160539956168 0)
(-0.324994890509 0.0194093847837 0)
(-0.334604409344 0.0238745053119 0)
(-0.343353768256 0.029805780648 0)
(-0.34959937463 0.0365469678782 0)
(-0.362298278871 -0.0692262389827 0)
(-0.357568645744 -0.05537480016 0)
(-0.350892454236 -0.0390715515098 0)
(-0.343527524891 -0.0293102985603 0)
(-0.336629800074 -0.0218222384096 0)
(-0.330561319651 -0.0166712018239 0)
(-0.325407121873 -0.0128050161744 0)
(-0.321115874102 -0.00991175085947 0)
(-0.317589073271 -0.0076580930837 0)
(-0.314725390279 -0.00587476934826 0)
(-0.312431488579 -0.00443008461966 0)
(-0.310627542842 -0.00324095726425 0)
(-0.309246440145 -0.00224593746491 0)
(-0.308232622595 -0.00140170244026 0)
(-0.307540265218 -0.000675594986137 0)
(-0.307131738617 -4.29658316025e-05 0)
(-0.306976239189 0.000515447478703 0)
(-0.307048686355 0.0010149194202 0)
(-0.307328821119 0.00146785202744 0)
(-0.30780048595 0.00188449780172 0)
(-0.308451046801 0.00227350996136 0)
(-0.309270932213 0.00264233928782 0)
(-0.310253266159 0.00299754204124 0)
(-0.311393577476 0.00334501998514 0)
(-0.312689571751 0.00369021655711 0)
(-0.314140954631 0.0040382820911 0)
(-0.315749297466 0.00439421944941 0)
(-0.317517937597 0.00476301808477 0)
(-0.319451906417 0.00514978360088 0)
(-0.321557878364 0.00555986896274 0)
(-0.323844133908 0.00599901364976 0)
(-0.326320527442 0.00647349714681 0)
(-0.328998450679 0.0069903150281 0)
(-0.331890773914 0.00755738611937 0)
(-0.335011751971 0.0081838062607 0)
(-0.338376848689 0.00888016093205 0)
(-0.342002472656 0.00965893770728 0)
(-0.345905464529 0.0105350504308 0)
(-0.350102412357 0.0115266143627 0)
(-0.354608104141 0.0126559172884 0)
(-0.359433751314 0.0139511206307 0)
(-0.364581658404 0.0154480101024 0)
(-0.370040416149 0.0171939846947 0)
(-0.375764251576 0.0192491162008 0)
(-0.381662431497 0.0216945738597 0)
(-0.387517103021 0.0246147552783 0)
(-0.392999402469 0.0281148298706 0)
(-0.397338496827 0.0321677685999 0)
(-0.399856223606 0.0367438655618 0)
(-0.398480535055 0.0409944326273 0)
(-0.388628203028 -0.0686829047071 0)
(-0.391917571351 -0.0569596903791 0)
(-0.391273037134 -0.0423678023087 0)
(-0.388515100854 -0.0329895753322 0)
(-0.384963748734 -0.0252678939944 0)
(-0.381307261821 -0.0196752197816 0)
(-0.377917198526 -0.0152758656311 0)
(-0.374935046804 -0.0118684724256 0)
(-0.372401550467 -0.00913651991026 0)
(-0.370305959643 -0.00692583619966 0)
(-0.368617043522 -0.00510139412045 0)
(-0.367296791927 -0.00357669514391 0)
(-0.366307198011 -0.00228423578235 0)
(-0.3656131148 -0.0011752852416 0)
(-0.365183336515 -0.000211959568047 0)
(-0.364990798736 0.000634934810477 0)
(-0.365012395964 0.00138868185349 0)
(-0.365228639622 0.00206804172247 0)
(-0.365623272681 0.00268846160539 0)
(-0.366182890588 0.00326285390453 0)
(-0.36689659127 0.00380221232787 0)
(-0.367755660653 0.00431605944203 0)
(-0.368753293557 0.00481280026437 0)
(-0.369884346 0.00529999907179 0)
(-0.371145113397 0.00578460589878 0)
(-0.372533128154 0.00627314524532 0)
(-0.374046969654 0.00677187884175 0)
(-0.375686078847 0.00728695012966 0)
(-0.377450568986 0.00782451695021 0)
(-0.379341022481 0.008390877369 0)
(-0.381358262796 0.00899259309097 0)
(-0.383503086369 0.00963661404643 0)
(-0.385775939805 0.0103304085351 0)
(-0.388176515165 0.0110821016139 0)
(-0.390703248304 0.0119006297038 0)
(-0.393352654685 0.0127959112813 0)
(-0.396118519015 0.0137790591649 0)
(-0.398990712912 0.0148626151481 0)
(-0.401953879399 0.0160609092932 0)
(-0.40498498139 0.0173903946915 0)
(-0.408051273759 0.0188703937401 0)
(-0.41110372374 0.0205232850852 0)
(-0.41407517929 0.0223761128963 0)
(-0.416857435324 0.0244578171425 0)
(-0.419312708511 0.026802259621 0)
(-0.421178616092 0.0294243945068 0)
(-0.42220589449 0.0323291604929 0)
(-0.421699694362 0.0353776166518 0)
(-0.419618006202 0.0383892081429 0)
(-0.413911326353 0.0406849538493 0)
(-0.407644387755 -0.0642088028398 0)
(-0.415755587822 -0.054945854813 0)
(-0.419255541088 -0.0425860585676 0)
(-0.420007822983 -0.0340899144551 0)
(-0.419201129144 -0.0266849657958 0)
(-0.417664814603 -0.0210675755805 0)
(-0.415894992017 -0.0164729459497 0)
(-0.414149680084 -0.012806244613 0)
(-0.412562145603 -0.00979295765162 0)
(-0.411189483565 -0.0073073382702 0)
(-0.410050420121 -0.00522349409156 0)
(-0.409142832613 -0.00345986584048 0)
(-0.408454910359 -0.00194914592056 0)
(-0.407970609489 -0.000641653198133 0)
(-0.407672804979 0.000502424818023 0)
(-0.407544810107 0.00151435839941 0)
(-0.407571148091 0.00241955401934 0)
(-0.407737847803 0.00323875590849 0)
(-0.408032508628 0.00398923024281 0)
(-0.408444230007 0.00468551254531 0)
(-0.408963476457 0.00534002700793 0)
(-0.409581909041 0.00596353767454 0)
(-0.410292202959 0.00656551104843 0)
(-0.411087859264 0.00715439975388 0)
(-0.411963014103 0.00773787377567 0)
(-0.412912245065 0.00832300969747 0)
(-0.413930372246 0.00891644915135 0)
(-0.415012250021 0.00952453305497 0)
(-0.416152544598 0.0101534172167 0)
(-0.417345491004 0.010809173091 0)
(-0.418584623253 0.0114978768547 0)
(-0.419862468119 0.0122256888459 0)
(-0.421170197172 0.0129989259991 0)
(-0.422497218158 0.0138241278743 0)
(-0.423830712268 0.0147081218202 0)
(-0.425155057881 0.0156580840139 0)
(-0.426451216848 0.016681617076 0)
(-0.427695822377 0.0177868183408 0)
(-0.428860422536 0.0189824237265 0)
(-0.429909583993 0.0202778619173 0)
(-0.43080038176 0.0216835768259 0)
(-0.431476612459 0.023210658989 0)
(-0.431871831043 0.0248714045816 0)
(-0.431886166957 0.0266756622109 0)
(-0.43141673845 0.0286310860816 0)
(-0.430251333145 0.0307217719754 0)
(-0.428283283932 0.0329088250333 0)
(-0.424970948616 0.0350388514997 0)
(-0.420681393788 0.0368928869426 0)
(-0.413588566953 0.0380573001723 0)
(-0.420613768282 -0.0580701593036 0)
(-0.431165376427 -0.0511055983211 0)
(-0.437212811454 -0.0409672930893 0)
(-0.440372485412 -0.0335237732816 0)
(-0.441594636622 -0.0267064191005 0)
(-0.441712856594 -0.0213090270507 0)
(-0.441243579592 -0.0167469600084 0)
(-0.440502637734 -0.0130093079407 0)
(-0.439675502822 -0.00987314143213 0)
(-0.43886490467 -0.00724376362968 0)
(-0.438125723613 -0.00501079422756 0)
(-0.437483849781 -0.003101874942 0)
(-0.436948907256 -0.00145377620181 0)
(-0.436521163362 -1.87777889338e-05 0)
(-0.436195906793 0.00124250685901 0)
(-0.435965868059 0.00236157381589 0)
(-0.435822676563 0.00336444885916 0)
(-0.435757650134 0.00427262544115 0)
(-0.43576222628 0.00510414770755 0)
(-0.435828159743 0.00587427721124 0)
(-0.435947587885 0.00659607610375 0)
(-0.43611301286 0.00728083334978 0)
(-0.436317235239 0.00793841465725 0)
(-0.436553257283 0.00857753708721 0)
(-0.436814167479 0.00920599365957 0)
(-0.43709301227 0.00983083580549 0)
(-0.437382658186 0.0104585240663 0)
(-0.437675645432 0.0110950527735 0)
(-0.437964033148 0.0117460539568 0)
(-0.438239235208 0.0124168840819 0)
(-0.438491846473 0.0131126968487 0)
(-0.438711455883 0.0138385043732 0)
(-0.438886449645 0.0145992298031 0)
(-0.43900379094 0.0153997527253 0)
(-0.439048797281 0.0162449531626 0)
(-0.439004851555 0.0171397519301 0)
(-0.438853159953 0.0180891646158 0)
(-0.438572239605 0.0190983441571 0)
(-0.438137736751 0.0201726723385 0)
(-0.437520988608 0.0213177459813 0)
(-0.436689552367 0.0225394904431 0)
(-0.435601685573 0.0238435950973 0)
(-0.434212193295 0.0252352767307 0)
(-0.432448461211 0.0267156295461 0)
(-0.430250956974 0.028279321896 0)
(-0.427462060026 0.0298984920214 0)
(-0.424071773401 0.0315148135038 0)
(-0.419665851915 0.0329938403713 0)
(-0.414768410044 0.0341234517632 0)
(-0.407848392116 0.0347093660341 0)
(-0.428333654554 -0.0515459691627 0)
(-0.439658120523 -0.0465015427648 0)
(-0.447016766012 -0.0383529833715 0)
(-0.451653143141 -0.0319727025985 0)
(-0.454251921149 -0.0258586440963 0)
(-0.455558472661 -0.0208224629811 0)
(-0.456050131727 -0.0164431974464 0)
(-0.456057081278 -0.0127705334969 0)
(-0.455786896294 -0.00963387982662 0)
(-0.455369369506 -0.00696750728772 0)
(-0.454883344075 -0.00467918335345 0)
(-0.45437528742 -0.00270749593323 0)
(-0.453871547791 -0.000995488725278 0)
(-0.453385857302 0.000500863720983 0)
(-0.452924227685 0.00181897929269 0)
(-0.452487912605 0.00298932293386 0)
(-0.452075301042 0.00403748224561 0)
(-0.451683063283 0.0049848223293 0)
(-0.45130686251 0.00584942722912 0)
(-0.450941774772 0.00664666288221 0)
(-0.450582532325 0.00738970311325 0)
(-0.450223651186 0.00808991699671 0)
(-0.449859486859 0.0087571961808 0)
(-0.449484243743 0.0094002148366 0)
(-0.4490919556 0.0100266455139 0)
(-0.448676447708 0.0106433361117 0)
(-0.448231287743 0.011256457396 0)
(-0.44774972969 0.0118716260129 0)
(-0.447224653813 0.0124940079965 0)
(-0.446648503805 0.013128406318 0)
(-0.446013223058 0.0137793358182 0)
(-0.445310187168 0.0144510880714 0)
(-0.444530137234 0.0151477892199 0)
(-0.44366309717 0.0158734521966 0)
(-0.442698298103 0.0166320275674 0)
(-0.44162403109 0.017427449945 0)
(-0.440427555152 0.0182636887948 0)
(-0.439094691044 0.0191447778949 0)
(-0.43760978708 0.0200748477855 0)
(-0.43595428628 0.0210580300989 0)
(-0.434107534896 0.0220983173501 0)
(-0.432041163118 0.0231988151086 0)
(-0.429726088837 0.0243607263758 0)
(-0.427108888002 0.0255800497497 0)
(-0.424156057144 0.0268433327394 0)
(-0.420747467273 0.0281176378901 0)
(-0.416920582594 0.0293371864723 0)
(-0.412358079589 0.0303940907823 0)
(-0.407596980659 0.0311044441091 0)
(-0.40138700447 0.031408383981 0)
(-0.431776554115 -0.0453116280583 0)
(-0.442822883862 -0.041754557713 0)
(-0.450614591057 -0.0352903854853 0)
(-0.456014230855 -0.0299074545947 0)
(-0.459459874015 -0.0245279305096 0)
(-0.461560233253 -0.0199305412816 0)
(-0.462723175875 -0.0158302410217 0)
(-0.463262562473 -0.0123178592084 0)
(-0.463386978962 -0.00927115731359 0)
(-0.463238473361 -0.00664970844436 0)
(-0.462909885309 -0.00437988972124 0)
(-0.462461769672 -0.00241160232323 0)
(-0.461932968153 -0.000695254087666 0)
(-0.461348026389 0.000808551518064 0)
(-0.460722071712 0.00213433105848 0)
(-0.460064012156 0.00331073571777 0)
(-0.45937864934 0.00436224010304 0)
(-0.458668050181 0.00530952549345 0)
(-0.457932450105 0.00617026007082 0)
(-0.457170839398 0.00695955021408 0)
(-0.456381346655 0.00769039845176 0)
(-0.45556148631 0.00837404532631 0)
(-0.454708317948 0.00902026885027 0)
(-0.453818546915 0.0096376268809 0)
(-0.452888586578 0.0102336629241 0)
(-0.451914595211 0.0108150778648 0)
(-0.450892496233 0.0113878757157 0)
(-0.449817987142 0.0119574872587 0)
(-0.448686540679 0.0125288759172 0)
(-0.447493399112 0.0131066288582 0)
(-0.446233562889 0.0136950361018 0)
(-0.444901768898 0.0142981595599 0)
(-0.443492461157 0.0149198938653 0)
(-0.44199973261 0.0155640191211 0)
(-0.440417260048 0.0162342464218 0)
(-0.438738143864 0.0169342507908 0)
(-0.436954787882 0.0176676899383 0)
(-0.435058430002 0.0184381833491 0)
(-0.433039058974 0.019249241616 0)
(-0.430883911068 0.0201040505134 0)
(-0.428578348577 0.0210050667131 0)
(-0.42610047593 0.0219531368692 0)
(-0.423428663944 0.0229459402471 0)
(-0.420519911793 0.0239753182218 0)
(-0.417353949834 0.0250222030834 0)
(-0.413837358546 0.0260519936654 0)
(-0.410028031767 0.0269995996139 0)
(-0.40568312741 0.0277821920681 0)
(-0.40129435263 0.0282523206901 0)
(-0.395838779389 0.028416765507 0)
(-0.432100307728 -0.0396701107078 0)
(-0.442306329059 -0.0372035656946 0)
(-0.44997100913 -0.0321140990392 0)
(-0.455635620968 -0.0276265852188 0)
(-0.459535911138 -0.0229639697854 0)
(-0.462131583922 -0.0188403885418 0)
(-0.463749563184 -0.0150760254009 0)
(-0.464668119495 -0.0117871601062 0)
(-0.465082773804 -0.00889346793774 0)
(-0.465136432972 -0.00637576317011 0)
(-0.464927969397 -0.00417822321903 0)
(-0.464526420257 -0.00226170015949 0)
(-0.463979300618 -0.000584364257416 0)
(-0.463319396606 0.000888117297592 0)
(-0.462569250752 0.00218683227978 0)
(-0.461744339703 0.00333815200253 0)
(-0.460855225377 0.00436502046237 0)
(-0.459909030227 0.00528709061262 0)
(-0.458910445128 0.00612133538431 0)
(-0.45786242031 0.00688238637683 0)
(-0.456766642108 0.00758291741378 0)
(-0.455623863428 0.00823393651539 0)
(-0.454434134898 0.00884505274109 0)
(-0.453196967569 0.00942469707884 0)
(-0.451911448275 0.00998031451807 0)
(-0.450576321492 0.0105185270901 0)
(-0.44919004689 0.011045274277 0)
(-0.447750838124 0.0115659333209 0)
(-0.446256686315 0.0120854227488 0)
(-0.444705368658 0.0126082911905 0)
(-0.443094442934 0.0131387932895 0)
(-0.441421222213 0.0136809535979 0)
(-0.439682732215 0.0142386187693 0)
(-0.437875629092 0.0148154966937 0)
(-0.435996101131 0.0154151801782 0)
(-0.434039667007 0.0160411482527 0)
(-0.432001013377 0.016696735407 0)
(-0.429873494179 0.0173850469078 0)
(-0.427649042123 0.0181087863575 0)
(-0.425316760616 0.0188699414583 0)
(-0.422863938332 0.0196692018393 0)
(-0.420271315836 0.0205050633038 0)
(-0.417520796371 0.0213720743057 0)
(-0.414576639723 0.0222589245666 0)
(-0.411426943782 0.0231435245112 0)
(-0.408000056885 0.0239922674423 0)
(-0.404362148308 0.0247461552851 0)
(-0.400326379804 0.0253431290266 0)
(-0.396324965495 0.0256713613754 0)
(-0.391503089311 0.025763647652 0)
(-0.430461347029 -0.0347097587742 0)
(-0.439609689503 -0.0330121447942 0)
(-0.446840607324 -0.0290150199633 0)
(-0.452457851981 -0.025305775214 0)
(-0.456547484111 -0.0213118862022 0)
(-0.459431808354 -0.0176659314945 0)
(-0.461357706961 -0.0142643157928 0)
(-0.462558235031 -0.0112361865918 0)
(-0.463207176718 -0.00853554816351 0)
(-0.463439970123 -0.00616035232441 0)
(-0.463355253448 -0.00407096761704 0)
(-0.463025740603 -0.0022384079202 0)
(-0.462504135524 -0.000628548948574 0)
(-0.461828918053 0.000787758698842 0)
(-0.461028195984 0.00203790623947 0)
(-0.460122654208 0.0031457120486 0)
(-0.459127600175 0.0041323209775 0)
(-0.458054435754 0.00501612373204 0)
(-0.456911692525 0.00581319856658 0)
(-0.455705769611 0.00653754015347 0)
(-0.454441459612 0.00720136515956 0)
(-0.453122326886 0.00781535118712 0)
(-0.451750981401 0.00838886666673 0)
(-0.450329278314 0.00893016603064 0)
(-0.448858463837 0.0094465635744 0)
(-0.447339281296 0.00994458324488 0)
(-0.445772046727 0.0104300889159 0)
(-0.44415669975 0.0109083962971 0)
(-0.442492833468 0.0113843686847 0)
(-0.44077970415 0.0118624976876 0)
(-0.439016221971 0.0123469697899 0)
(-0.437200917883 0.0128417187462 0)
(-0.435331890313 0.0133504629222 0)
(-0.433406711626 0.0138767252733 0)
(-0.431422320635 0.0144238314566 0)
(-0.429374820913 0.0149948789296 0)
(-0.427259330948 0.015592662725 0)
(-0.425069536465 0.0162195417853 0)
(-0.422797677062 0.016877199662 0)
(-0.420433366818 0.0175662828586 0)
(-0.417964773437 0.018285749834 0)
(-0.415374682015 0.0190320580422 0)
(-0.412648060336 0.0197974843348 0)
(-0.409756066608 0.0205689151634 0)
(-0.406693634108 0.0213236283767 0)
(-0.403407212598 0.0220308444123 0)
(-0.399965467669 0.0226402029391 0)
(-0.396221632081 0.0231057137935 0)
(-0.392552067901 0.0233455872278 0)
(-0.388220682187 0.0233983911649 0)
(-0.427832633046 -0.0304031463178 0)
(-0.435918886495 -0.0292336096603 0)
(-0.442589057823 -0.0260873639375 0)
(-0.44798892149 -0.0230372226032 0)
(-0.452104151077 -0.019645808155 0)
(-0.455143333609 -0.0164587075975 0)
(-0.457281719168 -0.0134237532994 0)
(-0.458704900685 -0.0106731742269 0)
(-0.459560495716 -0.00818747189919 0)
(-0.459970911669 -0.00597773803717 0)
(-0.460029823119 -0.00401840677603 0)
(-0.459809647412 -0.00228958014733 0)
(-0.459365193193 -0.000764455586798 0)
(-0.458738224312 0.00058103235356 0)
(-0.457960545748 0.0017704902159 0)
(-0.457056573537 0.00282503568248 0)
(-0.456045167872 0.00376383648926 0)
(-0.454941015444 0.00460384629602 0)
(-0.453755629581 0.00536008407354 0)
(-0.45249808765 0.00604575929265 0)
(-0.451175571053 0.00667249908081 0)
(-0.449793764754 0.00725053302587 0)
(-0.448357153782 0.00778888347928 0)
(-0.446869244505 0.00829553218002 0)
(-0.445332729791 0.00877757279224 0)
(-0.443749611467 0.00924134436083 0)
(-0.442121289321 0.00969254843514 0)
(-0.440448622641 0.010136349732 0)
(-0.438731968498 0.0105774615297 0)
(-0.436971198245 0.0110202161178 0)
(-0.435165694423 0.0114686204236 0)
(-0.433314324505 0.0119263961885 0)
(-0.431415396684 0.0123970030403 0)
(-0.429466580656 0.0128836417091 0)
(-0.427464821476 0.0133892318008 0)
(-0.42540617499 0.0139163575425 0)
(-0.423285708195 0.014467165353 0)
(-0.421097148172 0.0150432029373 0)
(-0.418832969095 0.0156451501901 0)
(-0.416483469205 0.0162724530438 0)
(-0.414038062636 0.0169226848363 0)
(-0.411482074071 0.0175908626108 0)
(-0.408803892794 0.0182679900055 0)
(-0.405981370354 0.0189403981526 0)
(-0.403015198489 0.0195864206105 0)
(-0.399866076449 0.0201790064101 0)
(-0.396602058754 0.0206768111854 0)
(-0.393103710044 0.0210457932164 0)
(-0.389700717937 0.0212273368076 0)
(-0.385739692786 0.0212573451886 0)
(-0.424911438171 -0.0266687189439 0)
(-0.432041487522 -0.0258559699003 0)
(-0.438135640399 -0.0233640213264 0)
(-0.443244582025 -0.0208610753044 0)
(-0.447293536856 -0.0179981321748 0)
(-0.450404177032 -0.0152365596294 0)
(-0.452692152041 -0.0125561782929 0)
(-0.454298320084 -0.0100851515331 0)
(-0.455342970468 -0.00782310507961 0)
(-0.455932343361 -0.00579052438817 0)
(-0.456151884163 -0.00397349593444 0)
(-0.456070658562 -0.00235994156874 0)
(-0.455743033502 -0.000929748179067 0)
(-0.455211962912 0.000336338604858 0)
(-0.454511262026 0.00145819784446 0)
(-0.453667704892 0.00245420053415 0)
(-0.452702573577 0.0033414338189 0)
(-0.451632887122 0.00413528937002 0)
(-0.450472319097 0.00484959437172 0)
(-0.449231898122 0.00549664268613 0)
(-0.447920535513 0.00608734672468 0)
(-0.446545427036 0.00663136959174 0)
(-0.445112358908 0.00713727550032 0)
(-0.443625942234 0.00761266707297 0)
(-0.442089792621 0.00806431544193 0)
(-0.440506667285 0.00849827629606 0)
(-0.438878568382 0.00891999292848 0)
(-0.437206818531 0.00933438503672 0)
(-0.435492112974 0.00974592355755 0)
(-0.433734550426 0.010158691182 0)
(-0.43193364547 0.0105764280829 0)
(-0.43008832015 0.0110025617809 0)
(-0.428196880929 0.0114402190174 0)
(-0.426256966751 0.0118922167099 0)
(-0.424265496627 0.0123610260101 0)
(-0.422218553828 0.0128487037421 0)
(-0.420111343069 0.0133567751807 0)
(-0.417937938021 0.0138860628564 0)
(-0.415691453997 0.014436414261 0)
(-0.413363349522 0.0150063576256 0)
(-0.410944760631 0.0155925230654 0)
(-0.408423885263 0.0161890982147 0)
(-0.405792588382 0.0167866493704 0)
(-0.403034681539 0.0173718528168 0)
(-0.400155388903 0.0179250354752 0)
(-0.397125953642 0.0184230719376 0)
(-0.39401216876 0.018832818813 0)
(-0.390712652463 0.0191289600459 0)
(-0.387520073536 0.0192698329214 0)
(-0.383839179726 0.0192860725102 0)
(-0.422119477754 -0.0234078807058 0)
(-0.428440332737 -0.0228342110506 0)
(-0.434001962172 -0.0208429784408 0)
(-0.438804140543 -0.0187884586147 0)
(-0.442740663207 -0.0163804617342 0)
(-0.445870895079 -0.0140038000687 0)
(-0.448263686871 -0.0116562349993 0)
(-0.450020703526 -0.00945711232547 0)
(-0.4512360818 -0.00741877026377 0)
(-0.451998755004 -0.00556774205456 0)
(-0.452384027764 -0.00389927768196 0)
(-0.452455511032 -0.00240774034836 0)
(-0.452265218728 -0.00107889264289 0)
(-0.451855645092 0.000102124646617 0)
(-0.45126125003 0.00115164781862 0)
(-0.450510043182 0.00208535086014 0)
(-0.449624808694 0.00291821196382 0)
(-0.44862413765 0.00366399199759 0)
(-0.44752322872 0.00433523686207 0)
(-0.446334524129 0.00494322744346 0)
(-0.445068204525 0.00549806265123 0)
(-0.443732578045 0.00600874275507 0)
(-0.442334385565 0.00648328169953 0)
(-0.440879041539 0.00692881600032 0)
(-0.439370824099 0.00735171276872 0)
(-0.437813024947 0.0077576685515 0)
(-0.436208066777 0.00815179850478 0)
(-0.43455759374 0.00853871368933 0)
(-0.43286253932 0.00892258595794 0)
(-0.431123173896 0.00930719949394 0)
(-0.429339135228 0.00969598804853 0)
(-0.427509440407 0.0100920564629 0)
(-0.425632485969 0.0104981840615 0)
(-0.423706024337 0.0109168069935 0)
(-0.421727144506 0.0113499736397 0)
(-0.419692202019 0.0117992683729 0)
(-0.417596825681 0.0122656890762 0)
(-0.415435749839 0.0127494771281 0)
(-0.413203049672 0.0132498590046 0)
(-0.410891621956 0.0137647386053 0)
(-0.408494510217 0.014290201321 0)
(-0.406002736401 0.0148201009796 0)
(-0.403411327686 0.0153451584176 0)
(-0.400709016856 0.0158529494816 0)
(-0.397904358852 0.0163261796896 0)
(-0.394976043581 0.0167454431234 0)
(-0.391986880671 0.0170845304004 0)
(-0.388847242319 0.0173244788118 0)
(-0.38582110456 0.0174356630935 0)
(-0.382355029503 0.0174433209112 0)
(-0.419660061321 -0.0205258107598 0)
(-0.425319951414 -0.0201122565762 0)
(-0.430416181795 -0.018505775554 0)
(-0.434925871438 -0.0168166991555 0)
(-0.438730567744 -0.0147961537031 0)
(-0.441847412251 -0.0127621876025 0)
(-0.444310248184 -0.0107211495088 0)
(-0.446188223043 -0.00878081606939 0)
(-0.447551960404 -0.00696104759569 0)
(-0.448473443814 -0.00529159038766 0)
(-0.449017078353 -0.00377447709169 0)
(-0.449239802032 -0.00240911102072 0)
(-0.449190002229 -0.00118620589376 0)
(-0.448908537847 -9.47731862995e-05 0)
(-0.448429506985 0.000878271841251 0)
(-0.447781319334 0.00174604279501 0)
(-0.446987582192 0.00252145311933 0)
(-0.446067911444 0.00321662217664 0)
(-0.445038592222 0.0038427728229 0)
(-0.443913129767 0.00441011525735 0)
(-0.442702695284 0.00492787025466 0)
(-0.44141648971 0.00540430934644 0)
(-0.440062038837 0.00584683233385 0)
(-0.438645433683 0.00626204979862 0)
(-0.437171526125 0.0066558702462 0)
(-0.435644088037 0.00703358251816 0)
(-0.43406594024 0.00739993166475 0)
(-0.432439056006 0.00775918527079 0)
(-0.430764643104 0.00811518900516 0)
(-0.42904320667 0.00847140996364 0)
(-0.427274596319 0.00883096646955 0)
(-0.425458036729 0.00919664268208 0)
(-0.423592148722 0.0095708854937 0)
(-0.421674951172 0.00995578094127 0)
(-0.419703870723 0.0103530047335 0)
(-0.417675711515 0.0107637432638 0)
(-0.41558670284 0.0111885727777 0)
(-0.413432401155 0.0116272984879 0)
(-0.411207969174 0.0120787206808 0)
(-0.408907793727 0.0125403707996 0)
(-0.406526771369 0.0130081055847 0)
(-0.404058464994 0.0134758090123 0)
(-0.401500585431 0.0139347369538 0)
(-0.398845735747 0.0143736609985 0)
(-0.396104794018 0.0147777138961 0)
(-0.393261545956 0.0151308207828 0)
(-0.390375658474 0.0154124033484 0)
(-0.387365161148 0.0156081522748 0)
(-0.384471940523 0.0156968723158 0)
(-0.381173507458 0.0156991111704 0)
(-0.417592902403 -0.0179411400736 0)
(-0.42272270182 -0.0176357105421 0)
(-0.427424502612 -0.0163286799806 0)
(-0.431669237151 -0.014937920115 0)
(-0.435337709763 -0.0132462374974 0)
(-0.438419971563 -0.0115149187572 0)
(-0.440924766959 -0.00975320550208 0)
(-0.442895397532 -0.00805607377114 0)
(-0.444382333907 -0.00644697289124 0)
(-0.44544195623 -0.0049565868115 0)
(-0.446127894192 -0.0035915928779 0)
(-0.446489929453 -0.0023550918342 0)
(-0.446572108854 -0.00124178511132 0)
(-0.446412906264 -0.00024396407079 0)
(-0.446045373607 0.000648572465404 0)
(-0.445497735156 0.00144658353327 0)
(-0.444793941678 0.00216102285559 0)
(-0.443954250852 0.00280240816962 0)
(-0.44299573496 0.0033806398759 0)
(-0.441932732781 0.00390483516884 0)
(-0.440777234198 0.00438330221784 0)
(-0.439539208384 0.00482354407804 0)
(-0.438226880517 0.00523230574696 0)
(-0.436846965109 0.00561563303681 0)
(-0.435404861967 0.00597894054591 0)
(-0.433904820398 0.00632707873726 0)
(-0.432350076286 0.00666439724682 0)
(-0.430742965762 0.00699480081586 0)
(-0.429085018898 0.00732179605719 0)
(-0.427377035612 0.00764852725331 0)
(-0.425619147206 0.00797779958284 0)
(-0.4238108634 0.00831208800162 0)
(-0.421951112018 0.00865352931109 0)
(-0.420038263558 0.00900389491319 0)
(-0.418070166479 0.00936453958672 0)
(-0.416044151382 0.00973632373421 0)
(-0.413957112686 0.0101194993505 0)
(-0.411805467047 0.010513563704 0)
(-0.40958546206 0.0109170557325 0)
(-0.407292894931 0.0113273378173 0)
(-0.404924342204 0.0117402766682 0)
(-0.402475542687 0.0121500403842 0)