/*--------------------------------*- C++ -*----------------------------------*\
| =========                 |                                                 |
| \\      /  F ield         | OpenFOAM: The Open Source CFD Toolbox           |
|  \\    /   O peration     | Version:  2.4.0                                 |
|   \\  /    A nd           | Web:      www.OpenFOAM.org                      |
|    \\/     M anipulation  |                                                 |
\*---------------------------------------------------------------------------*/
FoamFile
{
    version     2.0;
    format      ascii;
    class       volVectorField;
    location    "200";
    object      U;
}
// * * * * * * * * * * * * * * * * * * * * * * * * * * * * * * * * * * * * * //

dimensions      [0 1 -1 0 0 0 0];

internalField   nonuniform List<vector> 
2500
(
(2.09923057167e-05 3.96058036882e-07 0)
(2.05815313781e-05 5.59345899726e-08 0)
(2.06121664911e-05 -4.83782290279e-08 0)
(2.07421893208e-05 -5.90569437072e-08 0)
(2.08891405748e-05 -4.94521358692e-08 0)
(2.10195492887e-05 -3.8627701745e-08 0)
(2.11306741513e-05 -3.03805308342e-08 0)
(2.1224610441e-05 -2.45645729631e-08 0)
(2.13045349615e-05 -2.03748072457e-08 0)
(2.13729613915e-05 -1.71973936159e-08 0)
(2.14318040732e-05 -1.46623113934e-08 0)
(2.14825149929e-05 -1.25635926303e-08 0)
(2.15262389013e-05 -1.07846503352e-08 0)
(2.15639056578e-05 -9.25473052206e-09 0)
(2.15962873402e-05 -7.92641174327e-09 0)
(2.16240326647e-05 -6.76482538222e-09 0)
(2.16476895418e-05 -5.74247789062e-09 0)
(2.16677208082e-05 -4.83664974243e-09 0)
(2.16845158424e-05 -4.02795775633e-09 0)
(2.16983994066e-05 -3.29946167451e-09 0)
(2.1709638462e-05 -2.6360490172e-09 0)
(2.17184474003e-05 -2.02397411625e-09 0)
(2.17249919829e-05 -1.45049134913e-09 0)
(2.17293921791e-05 -9.03549471962e-10 0)
(2.17317240357e-05 -3.71522560957e-10 0)
(2.17320206552e-05 1.57036269933e-10 0)
(2.17302723258e-05 6.93631968469e-10 0)
(2.17264258025e-05 1.25006610473e-09 0)
(2.17203827091e-05 1.8386913326e-09 0)
(2.17119969864e-05 2.47268894087e-09 0)
(2.17010712727e-05 3.16638968244e-09 0)
(2.16873520415e-05 3.93565393836e-09 0)
(2.16705232561e-05 4.79833972496e-09 0)
(2.16501981987e-05 5.77489850178e-09 0)
(2.16259089882e-05 6.88916667009e-09 0)
(2.15970930755e-05 8.16948503808e-09 0)
(2.15630755911e-05 9.65042223232e-09 0)
(2.1523045641e-05 1.13757451505e-08 0)
(2.14760229385e-05 1.34041358456e-08 0)
(2.14208080115e-05 1.58210170506e-08 0)
(2.13559016672e-05 1.87637406235e-08 0)
(2.12793721938e-05 2.24730828075e-08 0)
(2.11886240017e-05 2.73907437289e-08 0)
(2.10800934477e-05 3.43022349116e-08 0)
(2.09488472376e-05 4.44377408822e-08 0)
(2.07895234303e-05 5.89679445088e-08 0)
(2.05989338914e-05 7.62910831872e-08 0)
(2.03990722537e-05 8.13217253665e-08 0)
(2.02584426316e-05 5.03891620717e-09 0)
(2.04963864853e-05 -2.97157823594e-07 0)
(7.52559718559e-05 1.09708130963e-06 0)
(7.48268560913e-05 2.1379456502e-07 0)
(7.48643793892e-05 -1.93399187579e-07 0)
(7.51012707637e-05 -2.99166231958e-07 0)
(7.54241680513e-05 -3.00736928416e-07 0)
(7.57579084468e-05 -2.72096138271e-07 0)
(7.60737066746e-05 -2.3848087984e-07 0)
(7.63602159039e-05 -2.071914264e-07 0)
(7.66152138324e-05 -1.79700479849e-07 0)
(7.68399042014e-05 -1.55844887774e-07 0)
(7.70367961123e-05 -1.35131457533e-07 0)
(7.7208693126e-05 -1.17082944614e-07 0)
(7.73583146329e-05 -1.01298233416e-07 0)
(7.74881505174e-05 -8.74454296389e-08 0)
(7.76004217069e-05 -7.52458608308e-08 0)
(7.7697080499e-05 -6.44613750859e-08 0)
(7.77798261459e-05 -5.48853669784e-08 0)
(7.78501246432e-05 -4.63363021909e-08 0)
(7.79092283758e-05 -3.86527545976e-08 0)
(7.79581938196e-05 -3.16894061993e-08 0)
(7.79978966747e-05 -2.53137069308e-08 0)
(7.80290442709e-05 -1.94030154318e-08 0)
(7.80521852947e-05 -1.38420953482e-08 0)
(7.8067716934e-05 -8.52086978266e-09 0)
(7.80758895409e-05 -3.332344705e-09 0)
(7.80768088739e-05 1.82936926004e-09 0)
(7.80704359317e-05 7.07101308447e-09 0)
(7.80565843267e-05 1.25021828429e-08 0)
(7.80349150802e-05 1.82374573171e-08 0)
(7.8004928638e-05 2.43987339365e-08 0)
(7.79659538226e-05 3.11178732076e-08 0)
(7.79171333246e-05 3.85397752164e-08 0)
(7.78574052245e-05 4.68260453424e-08 0)
(7.77854799012e-05 5.61594580125e-08 0)
(7.76998115488e-05 6.67495019496e-08 0)
(7.75985634226e-05 7.88394397166e-08 0)
(7.74795659505e-05 9.27155628126e-08 0)
(7.73402672736e-05 1.08719859617e-07 0)
(7.71776771322e-05 1.27268278578e-07 0)
(7.69883096519e-05 1.48878266285e-07 0)
(7.67681409837e-05 1.74210395999e-07 0)
(7.65126334356e-05 2.04123425135e-07 0)
(7.6216935878e-05 2.39709612279e-07 0)
(7.58766269135e-05 2.82142081978e-07 0)
(7.54895087244e-05 3.31738766201e-07 0)
(7.50608761714e-05 3.84396231714e-07 0)
(7.46121772055e-05 4.20144793314e-07 0)
(7.42102645516e-05 3.71735478286e-07 0)
(7.39685846543e-05 4.40445452515e-08 0)
(7.41539182186e-05 -7.57864482288e-07 0)
(0.000128052213511 1.64485885534e-06 0)
(0.000127686277015 3.86581928725e-07 0)
(0.000127669301291 -3.3464957534e-07 0)
(0.000127874121095 -6.09196452374e-07 0)
(0.000128215523196 -6.77231990007e-07 0)
(0.000128611187249 -6.57559863449e-07 0)
(0.000129015236616 -6.05165034297e-07 0)
(0.000129402189861 -5.43449446535e-07 0)
(0.000129760295654 -4.82043469017e-07 0)
(0.000130085070842 -4.24613868212e-07 0)
(0.000130375921684 -3.72331316657e-07 0)
(0.000130634149124 -3.25329067317e-07 0)
(0.000130861912175 -2.83321746067e-07 0)
(0.000131061676068 -2.45867251398e-07 0)
(0.000131235928909 -2.12479372725e-07 0)
(0.000131387037127 -1.82676033915e-07 0)
(0.0001315171748 -1.5599896428e-07 0)
(0.000131628291785 -1.32020201197e-07 0)
(0.00013172210225 -1.10342399224e-07 0)
(0.000131800083567 -9.05962368557e-08 0)
(0.00013186348007 -7.24365328503e-08 0)
(0.00013191330856 -5.55378507327e-08 0)
(0.000131950363803 -3.9589960145e-08 0)
(0.000131975222965 -2.42932985679e-08 0)
(0.000131988248384 -9.35446044342e-09 0)
(0.000131989588274 5.51832457662e-09 0)
(0.000131979175093 2.06197938413e-08 0)
(0.000131956721386 3.62524376539e-08 0)
(0.000131921712909 5.27315792314e-08 0)
(0.000131873398912 7.03908851623e-08 0)
(0.000131810779434 8.95884520401e-08 0)
(0.000131732589588 1.1071363279e-07 0)
(0.000131637280876 1.34194765246e-07 0)
(0.000131522999923 1.60507943308e-07 0)
(0.000131387565501 1.90186890311e-07 0)
(0.000131228445786 2.23833793577e-07 0)
(0.000131042739786 2.62130474587e-07 0)
(0.000130827170864 3.05848172331e-07 0)
(0.000130578107908 3.55851552025e-07 0)
(0.000130291645605 4.1308595427e-07 0)
(0.000129963804984 4.78519738598e-07 0)
(0.00012959098138 5.52969790447e-07 0)
(0.000129170865652 6.36622575618e-07 0)
(0.000128704337731 7.27789457919e-07 0)
(0.000128198898568 8.19721596805e-07 0)
(0.000127675472287 8.92985289399e-07 0)
(0.000127176676608 8.97128445367e-07 0)
(0.000126784699879 7.15140035063e-07 0)
(0.000126595844229 9.76185540238e-08 0)
(0.000126744775247 -1.07959741853e-06 0)
(0.000179065018797 2.06622194518e-06 0)
(0.000178765945303 5.70994446304e-07 0)
(0.000178699270326 -4.02157362481e-07 0)
(0.000178826492951 -8.61324808851e-07 0)
(0.000179104514568 -1.03440238937e-06 0)
(0.000179468184705 -1.05931428672e-06 0)
(0.000179870111081 -1.0132166582e-06 0)
(0.000180277679232 -9.35974122682e-07 0)
(0.000180671367506 -8.47830833121e-07 0)
(0.000181040321645 -7.58769810048e-07 0)
(0.000181379284012 -6.73544967494e-07 0)
(0.000181686364762 -5.94233332322e-07 0)
(0.000181961640106 -5.2154282065e-07 0)
(0.000182206275028 -4.55481082803e-07 0)
(0.000182421990341 -3.95703057538e-07 0)
(0.000182610739422 -3.41693511092e-07 0)
(0.000182774513309 -2.92863592361e-07 0)
(0.000182915223513 -2.48601492681e-07 0)
(0.000183034632082 -2.08298115543e-07 0)
(0.000183134310345 -1.71358895935e-07 0)
(0.000183215614982 -1.37207843669e-07 0)
(0.000183279674366 -1.05287173753e-07 0)
(0.000183327380748 -7.50544022105e-08 0)
(0.000183359385474 -4.59779600741e-08 0)
(0.000183376095444 -1.75318888759e-08 0)
(0.000183377669632 1.08100719581e-08 0)
(0.000183364014964 3.95808721843e-08 0)
(0.000183334781104 6.93269563735e-08 0)
(0.000183289354001 1.00615485191e-07 0)
(0.000183226848222 1.34041970577e-07 0)
(0.000183146098442 1.7023830382e-07 0)
(0.000183045650803 2.09881061166e-07 0)
(0.000182923755475 2.53699800596e-07 0)
(0.000182778362682 3.02484708925e-07 0)
(0.000182607125987 3.57092317405e-07 0)
(0.000182407419213 4.18446763954e-07 0)
(0.000182176377633 4.87531748097e-07 0)
(0.00018191098149 5.65363796242e-07 0)
(0.000181608212283 6.52928455963e-07 0)
(0.000181265334064 7.51042853668e-07 0)
(0.0001808803865 8.60070065157e-07 0)
(0.00018045303768 9.79332972387e-07 0)
(0.000179986011097 1.1059080372e-06 0)
(0.000179487448324 1.23216508133e-06 0)
(0.000178974380736 1.34071952467e-06 0)
(0.000178477912885 1.39462738354e-06 0)
(0.000178046641572 1.31819122904e-06 0)
(0.000177750715277 9.69193405389e-07 0)
(0.000177646171058 1.03235842256e-07 0)
(0.000177775173998 -1.32104059435e-06 0)
(0.000228003160229 2.37811956436e-06 0)
(0.000227764163946 7.50446966324e-07 0)
(0.00022766578398 -4.04371818106e-07 0)
(0.000227718032452 -1.03172619785e-06 0)
(0.000227910292603 -1.32466558709e-06 0)
(0.000228200760403 -1.41972739288e-06 0)
(0.000228550181411 -1.40475607484e-06 0)
(0.000228926308996 -1.33175692707e-06 0)
(0.000229306306736 -1.23087397726e-06 0)
(0.000229675068351 -1.11916011824e-06 0)
(0.00023002334028 -1.00608150123e-06 0)
(0.000230345934004 -8.96719229442e-07 0)
(0.000230640379161 -7.9362910031e-07 0)
(0.000230905954688 -6.97909613395e-07 0)
(0.000231143024152 -6.09819053292e-07 0)
(0.000231352586792 -5.29133811866e-07 0)
(0.000231535977621 -4.55357903536e-07 0)
(0.000231694667845 -3.87845814132e-07 0)
(0.000231830132257 -3.25874252721e-07 0)
(0.000231943761165 -2.686833614e-07 0)
(0.000232036801805 -2.15499426805e-07 0)
(0.000232110319252 -1.65546245275e-07 0)
(0.000232165170109 -1.18049430859e-07 0)
(0.000232201984505 -7.22362771567e-08 0)
(0.000232221153412 -2.73327688721e-08 0)
(0.000232222819305 1.74412569851e-08 0)
(0.000232206868976 6.28781622573e-08 0)
(0.000232172927834 1.09789322133e-07 0)
(0.000232120355562 1.59012341438e-07 0)
(0.000232048243476 2.11418285003e-07 0)
(0.000231955414515 2.67918417133e-07 0)
(0.00023184042753 3.29469655116e-07 0)
(0.00023170158861 3.97077442704e-07 0)
(0.000231536973702 4.71793847271e-07 0)
(0.00023134446913 5.54707141119e-07 0)
(0.000231121840153 6.46916428478e-07 0)
(0.000230866843164 7.49480151614e-07 0)
(0.000230577405449 8.63318907985e-07 0)
(0.000230251908952 9.89037888811e-07 0)
(0.000229889632926 1.12660691347e-06 0)
(0.000229491433995 1.27478578066e-06 0)
(0.000229060772972 1.43009359126e-06 0)
(0.000228605201405 1.58495604637e-06 0)
(0.000228138422277 1.72441471592e-06 0)
(0.000227682679107 1.82029871267e-06 0)
(0.000227271156178 1.82156856214e-06 0)
(0.00022694676356 1.63846745998e-06 0)
(0.000226757603126 1.12584457958e-06 0)
(0.000226724624416 7.1891043563e-08 0)
(0.000226837183149 -1.49606898679e-06 0)
(0.000274704061194 2.60304410934e-06 0)
(0.00027451947703 9.15840033202e-07 0)
(0.000274407286898 -3.57709953236e-07 0)
(0.000274401777914 -1.12133498037e-06 0)
(0.000274512935487 -1.52940816026e-06 0)
(0.000274719931226 -1.70580271317e-06 0)
(0.000274995168882 -1.73934752732e-06 0)
(0.000275311526136 -1.68840374214e-06 0)
(0.000275646871445 -1.59028271845e-06 0)
(0.000275984606498 -1.46822820984e-06 0)
(0.000276313120181 -1.33646820218e-06 0)
(0.0002766247546 -1.20351825824e-06 0)
(0.000276914804013 -1.07430850552e-06 0)
(0.000277180669904 -9.51523344358e-07 0)
(0.00027742120686 -8.36442319886e-07 0)
(0.000277636235357 -7.29466856248e-07 0)
(0.000277826187734 -6.30450946931e-07 0)
(0.000277991854234 -5.38909142036e-07 0)
(0.000278134202236 -4.54147381759e-07 0)
(0.000278254248065 -3.75344937608e-07 0)
(0.000278352966254 -3.01605099631e-07 0)
(0.000278431225339 -2.31985699414e-07 0)
(0.000278489742428 -1.65516512251e-07 0)
(0.000278529051062 -1.0120805841e-07 0)
(0.000278549478603 -3.80547614079e-08 0)
(0.00027855113058 2.49655540323e-08 0)
(0.000278533880434 8.88944247861e-08 0)
(0.000278497363856 1.54796691459e-07 0)
(0.000278440977644 2.23764656663e-07 0)
(0.000278363883711 2.96921433522e-07 0)
(0.000278265019689 3.75422191457e-07 0)
(0.000278143118618 4.60451482456e-07 0)
(0.000277996741512 5.53213909628e-07 0)
(0.00027782432848 6.54913881391e-07 0)
(0.000277624276649 7.66717696694e-07 0)
(0.00027739505673 8.89687109059e-07 0)
(0.000277135385117 1.02466678126e-06 0)
(0.000276844475067 1.17209691899e-06 0)
(0.000276522398924 1.33170393522e-06 0)
(0.000276170602679 1.50199174359e-06 0)
(0.000275792619816 1.67940651144e-06 0)
(0.000275395027571 1.8569707724e-06 0)
(0.000274988639773 2.02206023271e-06 0)
(0.000274589838096 2.15285763285e-06 0)
(0.0002742215594 2.21278543928e-06 0)
(0.000273913221804 2.14249218997e-06 0)
(0.000273696758033 1.84873181436e-06 0)
(0.000273598563588 1.1969934942e-06 0)
(0.000273615531823 1.50330791355e-08 0)
(0.000273710269391 -1.6214317921e-06 0)
(0.000319078075588 2.75602654756e-06 0)
(0.000318943193449 1.05936824015e-06 0)
(0.000318830750943 -2.81954039095e-07 0)
(0.000318786037889 -1.14651142771e-06 0)
(0.000318830453219 -1.65394815874e-06 0)
(0.00031895917342 -1.91106246067e-06 0)
(0.000319156039847 -2.00144039107e-06 0)
(0.000319401044436 -1.98477966428e-06 0)
(0.000319675346869 -1.90233952237e-06 0)
(0.000319963163024 -1.7818292618e-06 0)
(0.000320252264686 -1.64150145436e-06 0)
(0.000320533699727 -1.49313894306e-06 0)
(0.000320801246911 -1.34416671445e-06 0)
(0.000321050822404 -1.19909546465e-06 0)
(0.000321279945185 -1.0604956088e-06 0)
(0.000321487293393 -9.29648504538e-07 0)
(0.000321672353204 -8.06980409841e-07 0)
(0.000321835148506 -6.92351176579e-07 0)
(0.000321976036377 -5.85246116718e-07 0)
(0.000322095554084 -4.84903228793e-07 0)
(0.000322194305535 -3.90397132262e-07 0)
(0.000322272877528 -3.00693873111e-07 0)
(0.000322331778452 -2.14686069449e-07 0)
(0.00032237139389 -1.31214766445e-07 0)
(0.000322391955173 -4.90823916766e-08 0)
(0.000322393518112 3.29400957764e-08 0)
(0.000322375950203 1.16109547059e-07 0)
(0.000322338925444 2.0170857574e-07 0)
(0.000322281926784 2.91043384143e-07 0)
(0.000322204257023 3.85439607405e-07 0)
(0.000322105059967 4.86233916734e-07 0)
(0.000321983354733 5.94758345132e-07 0)
(0.000321838087496 7.12313005711e-07 0)
(0.000321668206766 8.40120823664e-07 0)
(0.00032147277052 9.79254679228e-07 0)
(0.000321251096332 1.13052236765e-06 0)
(0.000321002968989 1.29428705081e-06 0)
(0.000320728923493 1.47018896751e-06 0)
(0.000320430623858 1.65671601533e-06 0)
(0.000320111357147 1.8505437934e-06 0)
(0.000319776651708 2.04552621654e-06 0)
(0.000319434999964 2.23116613464e-06 0)
(0.000319098591979 2.39032764419e-06 0)
(0.000318783841739 2.49591645119e-06 0)
(0.000318511182463 2.5062101018e-06 0)
(0.000318303378462 2.35900544342e-06 0)
(0.00031818058934 1.96485596552e-06 0)
(0.000318151826862 1.20595368427e-06 0)
(0.00031819965463 -5.30147749201e-08 0)
(0.000318274842266 -1.70548172078e-06 0)
(0.000361078354486 2.84866320915e-06 0)
(0.000360988703813 1.17692827421e-06 0)
(0.000360884995795 -1.9238117874e-07 0)
(0.000360816548645 -1.12453197913e-06 0)
(0.000360810062262 -1.71069110941e-06 0)
(0.000360871843334 -2.04016533386e-06 0)
(0.000360995335575 -2.18809611933e-06 0)
(0.000361167803537 -2.21196234275e-06 0)
(0.00036137490672 -2.15412052716e-06 0)
(0.000361603176151 -2.04481994417e-06 0)
(0.000361841159069 -1.90519892907e-06 0)
(0.000362079729538 -1.74972943833e-06 0)
(0.00036231197395 -1.58810962354e-06 0)
(0.000362532885926 -1.42666086505e-06 0)
(0.000362739007698 -1.26933562463e-06 0)
(0.000362928085142 -1.11843262927e-06 0)
(0.000363098765546 -9.75099745968e-07 0)
(0.00036325034622 -8.3968548489e-07 0)
(0.000363382572055 -7.11983791357e-07 0)
(0.000363495475995 -5.91403995125e-07 0)
(0.000363589255326 -4.77088395467e-07 0)
(0.000363664177012 -3.67993235345e-07 0)
(0.000363720506309 -2.62944121266e-07 0)
(0.000363758453963 -1.60673699853e-07 0)
(0.000363778138442 -5.98472057552e-08 0)
(0.000363779560642 4.09199630244e-08 0)
(0.000363762589447 1.43049403604e-07 0)
(0.000363726957365 2.47988862351e-07 0)
(0.000363672266337 3.57200805517e-07 0)
(0.000363598004624 4.72147656495e-07 0)
(0.000363503576643 5.94270431165e-07 0)
(0.000363388348658 7.24956535963e-07 0)
(0.000363251714427 8.65490951415e-07 0)
(0.000363093186293 1.01698266186e-06 0)
(0.000362912518737 1.18025465821e-06 0)
(0.000362709872903 1.3556806503e-06 0)
(0.00036248603171 1.54294407114e-06 0)
(0.000362242675035 1.74068417362e-06 0)
(0.000361982721426 1.94597900152e-06 0)
(0.000361710733849 2.15359513664e-06 0)
(0.000361433366513 2.3549092632e-06 0)
(0.000361159790195 2.53638214744e-06 0)
(0.00036090195898 2.67744568125e-06 0)
(0.000360674466356 2.7476986973e-06 0)
(0.000360493548158 2.70336636786e-06 0)
(0.000360374607301 2.48349086491e-06 0)
(0.000360327450207 2.00648854172e-06 0)
(0.000360348606315 1.17260938916e-06 0)
(0.000360413215413 -1.22506093549e-07 0)
(0.000360468190348 -1.75466101636e-06 0)
(0.000400682533868 2.88987046313e-06 0)
(0.000400633821199 1.26679090273e-06 0)
(0.000400544242754 -1.0001299683e-07 0)
(0.000400463689029 -1.07062291965e-06 0)
(0.0004004204248 -1.71389783691e-06 0)
(0.000400427974693 -2.10316768693e-06 0)
(0.000400487153646 -2.30401224993e-06 0)
(0.000400591705804 -2.36955777262e-06 0)
(0.000400732024776 -2.34111808787e-06 0)
(0.000400897710303 -2.24975927803e-06 0)
(0.000401079005006 -2.11828791409e-06 0)
(0.000401267487024 -1.96308970298e-06 0)
(0.000401456291594 -1.79569359522e-06 0)
(0.000401640068458 -1.62401748463e-06 0)
(0.000401814809333 -1.45332683367e-06 0)
(0.000401977626497 -1.28695447665e-06 0)
(0.000402126527548 -1.12683288717e-06 0)
(0.000402260208748 -9.73883645865e-07 0)
(0.000402377876155 -8.28300421465e-07 0)
(0.000402479096484 -6.89753544133e-07 0)
(0.000402563676059 -5.57537330752e-07 0)
(0.000402631564716 -4.30675880264e-07 0)
(0.000402682781181 -3.07998943021e-07 0)
(0.000402717356709 -1.88196470194e-07 0)
(0.000402735294286 -6.98583024123e-08 0)
(0.000402736541408 4.84960058922e-08 0)
(0.000402720975096 1.68393176736e-07 0)
(0.000402688398579 2.91384486347e-07 0)
(0.000402638549757 4.1902294992e-07 0)
(0.000402571122371 5.52835830283e-07 0)
(0.000402485801517 6.94288297009e-07 0)
(0.000402382316061 8.44733007426e-07 0)
(0.000402260511263 1.00533875769e-06 0)
(0.000402120445789 1.17698895558e-06 0)
(0.000401962517858 1.36013725895e-06 0)
(0.000401787625341 1.55460299736e-06 0)
(0.000401597363673 1.75928257838e-06 0)
(0.00040139426232 1.971744718e-06 0)
(0.000401182053701 2.18766695675e-06 0)
(0.000400965955086 2.40005940955e-06 0)
(0.000400752920284 2.59821105938e-06 0)
(0.000400551778255 2.76629160934e-06 0)
(0.000400373115908 2.88155434024e-06 0)
(0.000400228674003 2.9121554695e-06 0)
(0.000400129942927 2.81470203312e-06 0)
(0.000400085490575 2.5320847969e-06 0)
(0.000400096928065 1.99227398898e-06 0)
(0.000400152477576 1.11248632916e-06 0)
(0.000400224268915 -1.87047812558e-07 0)
(0.000400259337264 -1.77381731547e-06 0)
(0.000437882907844 2.88681064977e-06 0)
(0.000437871069327 1.32894404281e-06 0)
(0.000437798490231 -1.21200948391e-08 0)
(0.000437714063076 -9.96704017296e-07 0)
(0.000437645494174 -1.67660680697e-06 0)
(0.000437610677373 -2.11141013948e-06 0)
(0.000437615745423 -2.35725306548e-06 0)
(0.000437659771883 -2.4618722662e-06 0)
(0.000437737551074 -2.46412728219e-06 0)
(0.000437841954024 -2.39455077056e-06 0)
(0.000437965406904 -2.27651907082e-06 0)
(0.000438100779386 -2.12752587102e-06 0)
(0.000438241829319 -1.96038721628e-06 0)
(0.000438383365287 -1.78428037132e-06 0)
(0.000438521239525 -1.60559680959e-06 0)
(0.00043865225043 -1.42861917071e-06 0)
(0.000438774004911 -1.25604678227e-06 0)
(0.000438884770803 -1.08939733118e-06 0)
(0.000438983336058 -9.29310588577e-07 0)
(0.000439068882951 -7.75776333108e-07 0)
(0.000439140880528 -6.28304514801e-07 0)
(0.000439198995714 -4.86051956553e-07 0)
(0.000439243022098 -3.47916743833e-07 0)
(0.000439272824931 -2.12609010327e-07 0)
(0.000439288300787 -7.87049517365e-08 0)
(0.000439289350638 5.5310410326e-08 0)
(0.000439275865469 1.91007068949e-07 0)
(0.00043924772409 3.29976324953e-07 0)
(0.000439204803322 4.73795491374e-07 0)
(0.000439147001305 6.2398675671e-07 0)
(0.000439074275248 7.81965344785e-07 0)
(0.000438986695449 9.4897108014e-07 0)
(0.000438884517813 1.12597593015e-06 0)
(0.000438768277292 1.31355791544e-06 0)
(0.000438638904357 1.51172886373e-06 0)
(0.000438497865491 1.71969968449e-06 0)
(0.000438347326122 1.93556213805e-06 0)
(0.000438190329476 2.15586066011e-06 0)
(0.000438030976108 2.37502228036e-06 0)
(0.000437874574467 2.58460873547e-06 0)
(0.000437727710743 2.77235535884e-06 0)
(0.000437598153119 2.92097351518e-06 0)
(0.000437494465387 3.00672269075e-06 0)
(0.000437425144715 2.99783692836e-06 0)
(0.000437397099375 2.85298510619e-06 0)
(0.000437413125745 2.52029004702e-06 0)
(0.000437468776539 1.93748737473e-06 0)
(0.00043754710964 1.03665218653e-06 0)
(0.000437619859011 -2.4299300145e-07 0)
(0.000437635975685 -1.76696408603e-06 0)
(0.000472680675552 2.8453510012e-06 0)
(0.000472701931539 1.36438430545e-06 0)
(0.000472647548142 6.67611776641e-08 0)
(0.000472564826001 -9.11653048101e-07 0)
(0.000472479809671 -1.60976915562e-06 0)
(0.000472412808181 -2.07572833139e-06 0)
(0.000472373598459 -2.3569864146e-06 0)
(0.000472365409124 -2.49559624703e-06 0)
(0.000472386836214 -2.52715738643e-06 0)
(0.000472433877848 -2.4807171806e-06 0)
(0.000472501303844 -2.37933406726e-06 0)
(0.000472583600651 -2.24087862599e-06 0)
(0.00047267553718 -2.07890076851e-06 0)
(0.000472772467231 -1.90344653452e-06 0)
(0.000472870452138 -1.72177594567e-06 0)
(0.000472966271823 -1.53896554579e-06 0)
(0.000473057371957 -1.35839921165e-06 0)
(0.000473141779525 -1.18215958213e-06 0)
(0.000473218007281 -1.01133561947e-06 0)
(0.000473284959403 -8.46261740602e-07 0)
(0.000473341845147 -6.86702452928e-07 0)
(0.000473388103912 -5.31994424261e-07 0)
(0.000473423343004 -3.81155915977e-07 0)
(0.000473447288328 -2.32971759599e-07 0)
(0.000473459747667 -8.60606339062e-08 0)
(0.000473460586119 6.10696634819e-08 0)
(0.00047344971333 2.09973981076e-07 0)
(0.000473427082442 3.62224049993e-07 0)
(0.000473392700949 5.19360708067e-07 0)
(0.00047334665401 6.82839413612e-07 0)
(0.000473289141047 8.53963783484e-07 0)
(0.000473220526635 1.0338009767e-06 0)
(0.000473141406695 1.22307142878e-06 0)
(0.000473052690564 1.42200367405e-06 0)
(0.000472955698568 1.63014277347e-06 0)
(0.000472852272713 1.84609824357e-06 0)
(0.000472744894663 2.06721454271e-06 0)
(0.000472636799442 2.28914461366e-06 0)
(0.000472532064503 2.50530564904e-06 0)
(0.000472435640618 2.70619803404e-06 0)
(0.000472353273358 2.87857609195e-06 0)
(0.000472291239638 3.00447872592e-06 0)
(0.000472255802403 3.06016260892e-06 0)
(0.000472252248402 3.01505222048e-06 0)
(0.000472283431189 2.83089677488e-06 0)
(0.00047234756018 2.46157512092e-06 0)
(0.000472435938341 1.85399536008e-06 0)
(0.000472528663391 9.52748605502e-07 0)
(0.000472598506158 -2.88481041914e-07 0)
(0.000472596983715 -1.73746965161e-06 0)
(0.000505082514193 2.77039776945e-06 0)
(0.0005051333884 1.37467976418e-06 0)
(0.000505097324882 1.34029908343e-07 0)
(0.000505019920994 -8.21826409857e-07 0)
(0.00050492507099 -1.52211486834e-06 0)
(0.000504834217179 -2.00563567272e-06 0)
(0.000504759508467 -2.31217802292e-06 0)
(0.000504707286396 -2.4782682446e-06 0)
(0.000504679275081 -2.53588686803e-06 0)
(0.000504674270616 -2.51199353758e-06 0)
(0.00050468932774 -2.42867147552e-06 0)
(0.000504720670744 -2.30356296176e-06 0)
(0.000504764301638 -2.15044744462e-06 0)
(0.0005048163832 -1.97984829945e-06 0)
(0.000504873452117 -1.79960783758e-06 0)
(0.000504932515643 -1.61539915442e-06 0)
(0.000504991072391 -1.43116393453e-06 0)
(0.000505047087578 -1.24947667868e-06 0)
(0.00050509894385 -1.07184185229e-06 0)
(0.000505145381825 -8.98932973705e-07 0)
(0.000505185439362 -7.30783223708e-07 0)
(0.000505218395032 -5.66936687441e-07 0)
(0.000505243718894 -4.06568443314e-07 0)
(0.000505261032214 -2.48580704141e-07 0)
(0.000505270076898 -9.16813008202e-08 0)
(0.000505270694972 6.5549942747e-08 0)
(0.00050526281825 2.24601928602e-07 0)
(0.000505246468337 3.86975360986e-07 0)
(0.000505221767184 5.54123492708e-07 0)
(0.000505188958485 7.27385649237e-07 0)
(0.000505148440241 9.07908160634e-07 0)
(0.00050510080868 1.0965465971e-06 0)
(0.000505046913345 1.29374218916e-06 0)
(0.000504987922328 1.4993640635e-06 0)
(0.000504925395194 1.71250747945e-06 0)
(0.000504861358699 1.93123681727e-06 0)
(0.000504798376689 2.15226094228e-06 0)
(0.000504739599962 2.37052839005e-06 0)
(0.000504688774062 2.57873156995e-06 0)
(0.000504650172406 2.76671462086e-06 0)
(0.000504628409588 2.92079084452e-06 0)
(0.000504628074015 3.02299702058e-06 0)
(0.000504653112534 3.05034449105e-06 0)
(0.0005047058756 2.97418491576e-06 0)
(0.000504785823127 2.75986134583e-06 0)
(0.000504887673084 2.36699014574e-06 0)
(0.000504999886743 1.7506961854e-06 0)
(0.00050510107261 8.65886796668e-07 0)
(0.000505165739074 -3.2280783361e-07 0)
(0.000505148050965 -1.68821644328e-06 0)
(0.000535098419526 2.66612180466e-06 0)
(0.000535175731699 1.36168308073e-06 0)
(0.000535157442657 1.88403583677e-07 0)
(0.000535087556294 -7.31634274035e-07 0)
(0.000534987683196 -1.42038763507e-06 0)
(0.000534879591868 -1.90910662837e-06 0)
(0.000534776880544 -2.23097443002e-06 0)
(0.000534688147267 -2.4173911666e-06 0)
(0.000534617601391 -2.49666005372e-06 0)
(0.000534566433976 -2.49332484329e-06 0)
(0.000534533797918 -2.42804626297e-06 0)
(0.000534517633921 -2.31777263999e-06 0)
(0.000534515266869 -2.17608731946e-06 0)
(0.000534523822442 -2.01363265267e-06 0)
(0.000534540495009 -1.83854949008e-06 0)
(0.000534562705383 -1.65689437726e-06 0)
(0.000534588180136 -1.47301506429e-06 0)
(0.00053461497842 -1.28987657324e-06 0)
(0.000534641485876 -1.10933733778e-06 0)
(0.000534666389801 -9.3237896461e-07 0)
(0.000534688645455 -7.59295154107e-07 0)
(0.000534707440159 -5.89846041591e-07 0)
(0.000534722159456 -4.23384247636e-07 0)
(0.000534732358054 -2.58958613468e-07 0)
(0.000534737737169 -9.54011646133e-08 0)
(0.000534738129241 6.85975572635e-08 0)
(0.000534733490586 2.34419966435e-07 0)
(0.000534723902342 4.03455042961e-07 0)
(0.000534709579899 5.77029417445e-07 0)
(0.000534690890867 7.56331085192e-07 0)
(0.000534668381445 9.42320546963e-07 0)
(0.000534642810638 1.13562364227e-06 0)
(0.000534615191156 1.33639967446e-06 0)
(0.000534586834705 1.54417768949e-06 0)
(0.000534559397754 1.75765308131e-06 0)
(0.000534534921325 1.97443630127e-06 0)
(0.000534515854835 2.19074570455e-06 0)
(0.000534505049114 2.40103810816e-06 0)
(0.00053450569755 2.59757433342e-06 0)
(0.000534521196585 2.7699242403e-06 0)
(0.000534554889209 2.90442802377e-06 0)
(0.000534609646259 2.98365048012e-06 0)
(0.000534687244285 2.98589208564e-06 0)
(0.000534787481782 2.88486395139e-06 0)
(0.000534907086282 2.64966609175e-06 0)
(0.000535038206943 2.24532750484e-06 0)
(0.000535167502601 1.63413198125e-06 0)
(0.000535273033429 7.79393976593e-07 0)
(0.000535331312323 -3.45978721141e-07 0)
(0.000535298972293 -1.62169398224e-06 0)
(0.000562740295805 2.53612412732e-06 0)
(0.000562841138552 1.32736315492e-06 0)
(0.000562839670214 2.29486692767e-07 0)
(0.000562778497806 -6.44026238983e-07 0)
(0.000562677010516 -1.30967275841e-06 0)
(0.000562556818753 -1.79262670737e-06 0)
(0.000562432325158 -2.12045960703e-06 0)
(0.000562313714203 -2.31995181909e-06 0)
(0.000562207117466 -2.41585640127e-06 0)
(0.00056211571216 -2.43017137103e-06 0)
(0.000562040500752 -2.38186017887e-06 0)
(0.000561981029469 -2.28684236378e-06 0)
(0.000561935939984 -2.15816734657e-06 0)
(0.000561903385895 -2.00628906807e-06 0)
(0.000561881326391 -1.83938607199e-06 0)
(0.000561867722727 -1.66368872417e-06 0)
(0.000561860660266 -1.48379035646e-06 0)
(0.000561858416688 -1.30292966682e-06 0)
(0.000561859493049 -1.12323904092e-06 0)
(0.000561862620719 -9.45958124177e-07 0)
(0.000561866753849 -7.71614787298e-07 0)
(0.000561871054402 -6.00177155448e-07 0)
(0.000561874874599 -4.3118109932e-07 0)
(0.000561877740162 -2.63837840375e-07 0)
(0.000561879336522 -9.71263118962e-08 0)
(0.000561879499465 7.01251677505e-08 0)
(0.000561878211071 2.39163468059e-07 0)
(0.000561875601445 4.11237059349e-07 0)
(0.000561871956415 5.8751982543e-07 0)
(0.00056186773104 7.69027690135e-07 0)
(0.000561863568388 9.5652322701e-07 0)
(0.000561860322481 1.15040311318e-06 0)
(0.000561859083493 1.35056294379e-06 0)
(0.000561861202095 1.55623366031e-06 0)
(0.000561868308164 1.76578379468e-06 0)
(0.000561882316747 1.97648215751e-06 0)
(0.000561905411128 2.18421683225e-06 0)
(0.000561939988956 2.38316894816e-06 0)
(0.000561988552943 2.56544436263e-06 0)
(0.000562053522652 2.72067404259e-06 0)
(0.000562136940318 2.83560547341e-06 0)
(0.000562240039696 2.89372425616e-06 0)
(0.000562362657386 2.87496576579e-06 0)
(0.000562502451323 2.75560683065e-06 0)
(0.000562654011451 2.50844430363e-06 0)
(0.000562807652103 2.10344795361e-06 0)
(0.000562948967124 1.50903999756e-06 0)
(0.000563056043275 6.95355118176e-07 0)
(0.000563107418964 -3.58425104302e-07 0)
(0.000563061913611 -1.54007280308e-06 0)
(0.000588020997248 2.38355852049e-06 0)
(0.000588142705827 1.2737085453e-06 0)
(0.000588156862364 2.57473883927e-07 0)
(0.000588104893796 -5.60874542698e-07 0)
(0.000588004130772 -1.19372409812e-06 0)
(0.00058787575491 -1.6613599677e-06 0)
(0.000587734537691 -1.98662216681e-06 0)
(0.00058759174389 -2.19220040953e-06 0)
(0.000587454959666 -2.29952678502e-06 0)
(0.000587328970775 -2.32805717789e-06 0)
(0.000587216362648 -2.29491444063e-06 0)
(0.000587118127223 -2.21476570391e-06 0)
(0.000587034153162 -2.09987265894e-06 0)
(0.000586963620416 -1.96025049398e-06 0)
(0.000586905298243 -1.80388858201e-06 0)
(0.000586857761975 -1.63699761502e-06 0)
(0.000586819543358 -1.46425943379e-06 0)
(0.000586789229665 -1.2890646134e-06 0)
(0.000586765524866 -1.11372952549e-06 0)
(0.000586747283934 -9.39689277036e-07 0)
(0.000586733529051 -7.67666056702e-07 0)
(0.000586723454442 -5.97814404953e-07 0)
(0.000586716424819 -4.29846114764e-07 0)