/*--------------------------------*- C++ -*----------------------------------*\
| =========                 |                                                 |
| \\      /  F ield         | OpenFOAM: The Open Source CFD Toolbox           |
|  \\    /   O peration     | Version:  2.4.0                                 |
|   \\  /    A nd           | Web:      www.OpenFOAM.org                      |
|    \\/     M anipulation  |                                                 |
\*---------------------------------------------------------------------------*/
FoamFile
{
    version     2.0;
    format      ascii;
    class       volScalarField;
    location    "0.3";
    object      rho;
}
// * * * * * * * * * * * * * * * * * * * * * * * * * * * * * * * * * * * * * //

dimensions      [1 -3 0 0 0 0 0];

internalField   nonuniform List<scalar> 
100
(
-8.41757686531e+46
1.31960078207e+42
-3.30349330094e+39
9.59407315558e+36
-1.70683820484e+35
-5.02739475377e+33
9.59832248559e+28
6.19921497084e+26
4.90790832024e+27
-4.95518326847e+29
-2.05388454439e+48
1.58185956257e+47
-2.5267512883e+41
-3.01369412661e+41
-1.88076115969e+37
6.49567627785e+35
-9.90906972823e+32
-1.48020913769e+29
-3.13075917524e+29
3.95647687466e+34
1.21462781301e+53
6.0380781158e+47
-3.18246590376e+46
-1.42538934123e+42
2.04819985428e+41
8.26569643551e+36
-1.90502088871e+35
-2.29400853502e+31
2.03437658084e+31
1.31121184844e+35
2.02434416991e+54
-1.32651852691e+53
1.82488126925e+47
9.56321886269e+45
1.25814892866e+41
-8.76287155037e+39
-5.47406406127e+36
7.33793035534e+33
5.16646348122e+34
1.62349745909e+36
-1.14327896009e+60
6.29565725116e+53
3.00562499196e+52
-1.46168246647e+48
-1.90510535809e+46
8.35306830831e+41
1.08293411069e+40
-1.09745453342e+36
1.4328373996e+35
-6.86807762715e+39
-4.82677134128e+53
3.8956879107e+52
1.58526217263e+48
-3.13177431674e+47
-1.19759047337e+42
1.73726226899e+41
4.45657400274e+35
-2.29384156941e+35
9.51406173102e+31
-1.8204436287e+35
1.47946538742e+53
-3.65876243123e+49
-9.80621412992e+48
1.13268165991e+44
6.76595872483e+42
-1.43633763025e+38
-8.11934023252e+36
2.09242666978e+32
-1.08886909036e+32
2.81262248987e+35
-9.94653590774e+48
-1.76216010228e+49
3.80292135107e+44
2.14316900092e+43
-1.05665852696e+39
-2.84505499689e+37
1.35882999808e+33
2.65004194069e+31
2.14310605048e+30
1.69683157127e+32
-2.25209728781e+48
2.94672360293e+44
2.86146151969e+43
-1.92244784777e+39
-5.46174328082e+37
3.29075529189e+33
8.32256854477e+31
-9.16520456844e+28
7.9995223254e+29
1.52226705831e+30
3.15181466946e+43
1.1057958164e+43
-1.40783920259e+39
-6.90570595998e+37
5.07469506724e+33
1.50874766904e+32
-1.32696444443e+29
3.68323095923e+29
-1.63353136882e+29
-6.18016081049e+28
)
;

boundaryField
{
    top
    {
        type            bounceBack;
        value           nonuniform 0();
    }
    bottom
    {
        type            bounceBack;
        value           uniform 1;
    }
    left
    {
        type            cyclic;
    }
    right
    {
        type            cyclic;
    }
    frontAndBack
    {
        type            empty;
    }
    procBoundary0to1
    {
        type            processor;
        value           nonuniform List<scalar> 10(4.29611511009e+27 -3.86426444355e+29 3.80034412258e+31 8.45231548934e+34 2.33713709323e+35 -5.83216850902e+33 -5.48234749794e+30 1.63909619924e+30 -3.3152462989e+26 9.17851263416e+24);
    }
    procBoundary0to1throughleft
    {
        type            processorCyclic;
        value           nonuniform List<scalar> 10(4.51553237973e+40 5.54312594074e+45 3.90496101209e+46 -1.64197891728e+52 1.02188272578e+53 1.64895078754e+52 1.26348418263e+45 -1.07933207106e+46 -5.35182476707e+41 6.57404990051e+39);
    }
    procBoundary0to2
    {
        type            processor;
        value           nonuniform List<scalar> 10(-1.34991859552e+36 3.57984721974e+32 4.6249183015e+31 -8.46250737151e+28 -5.42304913395e+26 3.3281075358e+25 -6.61332681453e+24 -7.15812883739e+24 4.27879703724e+23 3.25219411776e+22);
    }
}


// ************************************************************************* //
