/*--------------------------------*- C++ -*----------------------------------*\
| =========                 |                                                 |
| \\      /  F ield         | OpenFOAM: The Open Source CFD Toolbox           |
|  \\    /   O peration     | Version:  2.4.0                                 |
|   \\  /    A nd           | Web:      www.OpenFOAM.org                      |
|    \\/     M anipulation  |                                                 |
\*---------------------------------------------------------------------------*/
FoamFile
{
    version     2.0;
    format      ascii;
    class       volVectorField;
    location    "0.3";
    object      U;
}
// * * * * * * * * * * * * * * * * * * * * * * * * * * * * * * * * * * * * * //

dimensions      [0 1 -1 0 0 0 0];

internalField   nonuniform List<vector> 
100
(
(-0.20802006681 -1.15267049198 -0)
(5.20224941183 -6.27184848809 0)
(2.65524850196 -5.36406884948 -0)
(-2.49454035245 -2.08275671358 0)
(-2.16517161901 -1.05875016581 -0)
(1.02609112992 -1.63274343052 -0)
(1.04053710739 1.55610977183 0)
(14.7558493189 -2.27470215012 0)
(-0.357135517501 -0.563343465872 0)
(-1.06796750175 -0.676003604581 -0)
(-0.891275420331 1.29235979836 -0)
(0.612658340195 0.0125878416596 0)
(0.592400774749 0.175474176373 -0)
(0.152787235323 -0.946886132982 -0)
(0.304970384205 1.07977011013 -0)
(0.135291877222 -0.446523640464 0)
(1.20315300286 -1.26569172458 -0)
(1.81301218698 -0.527281911455 -0)
(-1.11025056044 -0.523927633924 -0)
(-1.12655863594 -0.145717364822 0)
(0.341932133375 1.98084332776 0)
(-0.16255852758 -0.841023828391 0)
(-0.896283824175 -0.851546395895 -0)
(0.507534905013 7.23835342452 -0)
(0.450081308177 1.98639058442 0)
(-0.811840370075 -0.251345577801 0)
(0.766881729054 0.186511854712 -0)
(1.25804680833 -0.261598091542 -0)
(-1.1585051473 0.0658125318412 0)
(-1.17848259576 -0.396478362385 0)
(-0.714753407379 -0.102964931106 0)
(-0.452801221427 -0.637508304492 -0)
(-0.264453107055 2.94272291574 0)
(-2.73202119112 -10.8971908106 0)
(8.00287032894 2.99214736094 0)
(0.975795796716 4.70528571674 -0)
(1.17462190455 0.0962411370389 -0)
(0.967773147351 2.54740330793 0)
(-1.17516115765 -0.151388601865 0)
(-1.1370299996 -0.183775732229 0)
(-0.854481411336 -0.0753196017464 -0)
(2.46775054221 0.254353806935 0)
(1.14401844135 0.356821763105 0)
(1.11929196193 0.0452504792181 -0)
(1.15971507647 0.0826067180799 -0)
(1.16849655897 0.00881244556748 0)
(1.15767105173 0.0178962730641 0)
(1.12740071259 0.00163704609073 -0)
(-1.81214903148 -0.00264650004862 0)
(-1.15799882869 -0.000738986602111 -0)
(4.64740880941 0.895849782381 -0)
(4.87163706235 -1.69240113985 0)
(1.78453778178 -0.480677909145 0)
(1.11938802651 -0.111210364093 -0)
(1.11598559582 -0.436621580297 -0)
(1.16832444924 0.0284502272457 0)
(1.12796918958 -1.48304440788 0)
(1.16335768839 0.0497259926641 -0)
(-10.1925177393 79.8321370771 0)
(-0.942105939501 -0.796394966723 -0)
(15.4986759158 7.06105771162 0)
(-3.36799030989 -1.68148529478 -0)
(1.21201133312 0.246078416768 -0)
(1.09921834118 0.373241672183 0)
(1.1564385546 0.0721971516583 0)
(1.19931067052 0.067351323343 -0)
(1.16127478309 0.035195315626 -0)
(1.11028975487 0.00975765001074 0)
(-1.10640800018 -0.297776014499 -0)
(-1.06660509912 -0.168090694192 0)
(-6.11967839121 -3.27973079277 -0)
(1.46185163248 0.886952143375 -0)
(1.76320620692 0.822611837177 0)
(1.15305640283 0.420592378491 0)
(1.13047342119 0.261811360219 -0)
(1.18352782614 0.302210826835 -0)
(1.19065709146 0.159795313069 0)
(1.37546038316 0.322602452591 0)
(-1.75166212018 -0.710012276081 0)
(0.363689381235 0.327443312323 0)
(1.19010662205 1.12169469799 -0)
(1.76081877902 1.01739200667 0)
(1.03380801598 0.904868424823 0)
(1.1286093199 0.6777293986 -0)
(1.12681359761 0.658798231537 -0)
(1.17716748968 0.486751641639 0)
(1.1759464 0.503232745341 0)
(20.5573656834 2.89165362923 -0)
(1.97705176175 0.406501107922 0)
(-1.37848102504 -0.0785821218017 0)
(0.941471934372 0.576968360294 0)
(0.587237760135 1.12097640439 0)
(0.99206391438 0.973030145206 -0)
(0.947824735413 0.947066059951 -0)
(1.06576355489 0.799941320105 0)
(1.0630803073 0.730380619139 0)
(-0.342365362376 0.458224449385 -0)
(-3.05761136434 -0.706174953023 0)
(-1.34405216901 -0.882236205273 -0)
(2.770842862 1.13618843452 -0)
)
;

boundaryField
{
    top
    {
        type            fixedValue;
        value           nonuniform 0();
    }
    bottom
    {
        type            fixedValue;
        value           uniform (0 0 0);
    }
    left
    {
        type            cyclic;
    }
    right
    {
        type            cyclic;
    }
    frontAndBack
    {
        type            empty;
    }
    procBoundary0to1
    {
        type            processor;
        value           nonuniform List<vector> 10((-1.15890626666 -0.604476389366 0) (-1.11399989203 -0.592474813497 -0) (-1.15050868465 0.0566061716063 0) (-1.17616260692 -0.162705014293 0) (-1.15971977631 -0.0072471966767 0) (-0.887601497414 -2.2762211269 -0) (-7.65698617948 -4.54979197487 -0) (0.816452683925 0.553010775073 0) (-1.33261268013 0.307033711831 -0) (1.33386988099 -1.41963019919 0));
    }
    procBoundary0to1throughleft
    {
        type            processorCyclic;
        value           nonuniform List<vector> 10((1.85987217829 -0.924577835193 0) (0.719200861689 -0.934828398882 0) (4.60955567579 0.442861084859 0) (-2.91749294551 -0.256180840347 -0) (-2.7228005444 -0.332399107112 0) (4.10534585666 0.998347819547 0) (56.6041151031 47.3355046298 0) (1.23334548735 1.16825101056 -0) (0.731548779078 1.12670925042 -0) (0.315000088749 1.14366139063 0));
    }
    procBoundary0to2
    {
        type            processor;
        value           nonuniform List<vector> 10((0.100301839828 1.12235726075 -0) (0.20603648579 1.15303200353 0) (0.57593115321 1.09341986844 0) (1.09110477954 -0.280655459302 -0) (0.942217107678 0.633489357739 -0) (0.865672494796 -0.0718646562766 0) (-4.38839651944 -2.53003853925 -0) (1.20674472137 0.846070266365 -0) (2.36700097184 1.12683500348 0) (0.973105115369 0.915741625368 0));
    }
}


// ************************************************************************* //
