/*--------------------------------*- C++ -*----------------------------------*\
| =========                 |                                                 |
| \\      /  F ield         | OpenFOAM: The Open Source CFD Toolbox           |
|  \\    /   O peration     | Version:  2.4.0                                 |
|   \\  /    A nd           | Web:      www.OpenFOAM.org                      |
|    \\/     M anipulation  |                                                 |
\*---------------------------------------------------------------------------*/
FoamFile
{
    version     2.0;
    format      ascii;
    class       volScalarField;
    location    "0.2";
    object      rho;
}
// * * * * * * * * * * * * * * * * * * * * * * * * * * * * * * * * * * * * * //

dimensions      [1 -3 0 0 0 0 0];

internalField   nonuniform List<scalar> 
400
(
-56.9495810349
-8.73490058337
1.31742660353
0.995338119836
1.00527783798
1.00068563287
0.999861968364
1.0000141089
1.00000095316
0.999999466733
1.00000223947
0.999984860892
0.999986770867
1.00108814849
0.997667464307
1.11817452826
1.84725344683
-23.8172570261
-81.0760410505
1199.02218439
187.86921967
-0.364198686772
-3.31452681663
1.19958168943
1.0063951462
0.996967285186
1.00057500596
0.999996539803
0.999986468735
1.00000171931
0.999995195183
1.00005156049
0.99985342258
0.999169053169
1.01420787254
1.02114124052
1.18595466824
6.2070059425
28.2208153803
-112.024265136
-173.84180376
109.835172315
2.78407985619
1.0207445018
1.03936995293
1.00489616967
0.999016080225
1.00007876859
1.00001332276
0.999996371251
1.00001546461
0.99989685812
1.00009456137
1.00629521112
1.00141456169
1.5448615427
5.66623784379
520.765777882
-727.952485317
3442.64851765
10735.7639197
221.659383294
60.0549887978
1.03743792117
1.00069619536
0.999245484325
1.00016941673
0.999996585512
0.99999633024
1.00000041337
0.999997878311
1.000027315
0.999922262381
0.999658293826
1.00827069877
1.02689889894
575.314709708
-49295.6344445
-6721.43946823
51910.7597154
-5421035.39751
13042.7454344
-19.8361369968
-2.26753177709
0.996718077254
0.998452297962
1.0004611647
0.999979938905
0.999991824075
1.00000166699
0.999994270976
1.00004209713
1.00000081436
0.998656966329
1.01786961411
-3.56554878348
-265008.219811
-1051458.36875
2713952.80272
-1660726.87826
215.89452499
12.4849095593
0.140141709311
0.933803527718
1.01806293382
1.00525546063
0.999226567844
1.00000749094
1.00001931764
0.999997650711
1.00000685797
0.999926710793
1.00022310962
1.00161167893
0.989469283997
1.14135858754
-7.09298257547
52628.2095237
-5110.33716079
-50521.6574137
1669.23211213
62.4805092311
-42.3703162331
-1.94034212981
0.994943774928
0.998626710701
1.001355521
0.999901025518
0.99998782424
1.00000403406
0.999979937135
1.00013706659
1.00011389309
0.997862470716
1.11352558601
-6.74821290186
-96.2907908579
474.677268609
1433.1044951
-27912.8771106
-622.119091657
4.23567087677
0.361501365689
1.0529777107
1.00631069929
0.999629804414
1.00012921984
0.999999715555
0.99999516593
1.00000116791
1.00000132468
0.999984246602
1.00006185426
1.00050030453
1.0019039542
1.09918834525
-11.2760423171
-55.0627378587
266.926087741
360.914376905
745.972684817
21.0309853053
1.6922734658
0.977945022789
1.0356960675
1.00484896225
0.999114626772
1.00007263563
1.00001023535
0.999997014443
1.00001657787
0.999898992732
1.0000623079
1.00495548389
0.995428784282
1.43211477182
4.4610387588
-140.3712145
-304.757914791
3321.39506885
-9401.9350966
3591.66906854
73.0774550877
1.08626180938
0.998915896797
0.999359736989
1.00021060157
0.999971404024
1.00000229461
0.999999207041
0.999988471238
1.00005936795
0.999998042957
0.998673648979
1.01232288889
1.0407944926
-12.358178081
-337.895912587
536.029762764
-2068.36166065
-166666.005733
-93507.4934489
1907.54833559
52.9904794763
1.00330876696
0.997412424231
1.00058282573
0.999998995459
0.999979458392
1.00000323533
0.99999259803
1.00004690255
0.999992973826
0.998701943821
1.01619845784
-3.60494839478
-746.643157673
-2442.84590935
9635.76936665
72686.5082273
1346797.51729
-90904.7440676
-22286.4899318
285.570339039
12.4082306925
1.00990849877
0.998531691816
1.00007165911
1.00003542681
0.999992696126
1.00001700736
0.999900229276
1.00010333037
1.00295134318
0.988786517545
1.15607443445
7.83005772525
501.028784703
-19487.5806282
-72551.6722711
-146152.074965
104281.063875
995.024560423
-12.0017052774
1.00041179267
0.996991909945
1.00121632069
0.999950539724
0.999978931967
1.00000370681
0.999982599357
1.00011736029
1.00000881497
0.997585514661
1.06578038398
-5.13014722128
-80.9079999365
336.460979208
4557.93978894
-106575.890296
-20816.5416006
-5700.28603531
-12.6639913066
0.999721814143
0.999718335818
1.00053024522
1.00005109421
0.999981852887
0.9999989434
1.00000125982
0.999999470737
0.999978297355
1.00012161564
1.00028816969
0.996803490146
1.05902738116
-11.4850628597
-55.7966283449
439.193336187
5486.68813481
1089.8269069
-24.0603677599
1.1322991428
0.969934685602
1.00332666091
1.00076699112
0.99979779616
1.0000087079
1.00000484858
0.999998779384
1.00000330244
0.999982767515
0.999992225209
1.00064638607
0.997142084142
1.00664173865
1.22170459778
-48.5102219399
-67.6935308467
288.641978139
8386.75945227
47.2917616915
0.331716667259
0.977132346225
1.00053472424
1.00067679513
0.9998876752
1.00000317133
1.00000238639
0.99999941676
1.00000052985
0.999995117684
1.0000107741
1.00014888128
0.998903436399
1.00891831023
360.756179682
1492.39717958
-3309.62591762
-1399.44645946
-5922.06344096
234.711596338
-24.4254337395
-2.74230659371
0.995995550777
0.998725718598
1.00037810031
0.999982367199
0.999993301768
1.00000143274
0.999995315044
1.00002972184
1.00001603185
0.998869413791
1.01139055002
-4.15888460017
-158.336080465
2.47583186261
8718.11419783
-33577.1928451
-5095.61190916
-1447.07321521
0.190094145871
0.94947307139
1.00019238007
1.00221191596
0.999693199512
0.999984444538
1.00001204132
0.999998536594
1.00000192887
0.999982947312
1.00003133018
1.00043013081
0.996669388162
1.01446092836
28.3258752711
-1288.90606582
-5876.93752069
46193.0676347
4021.00934009
-13.1006312734
-2.90591461212
1.07283612556
0.999543462366
0.997617117203
1.00052827924
1.00000322254
0.999982229812
1.00000293062
0.999998786135
1.00000709589
1.0000261035
0.999538266465
1.00267428791
1.01718157405
0.98766867584
-18.6515254664
-5202.12046666
-4775.03024416
-7.43572306692
0.620363804971
1.28715486274
0.968416839949
0.998945736229
1.00141215903
0.999854220168
0.999977828358
1.00000851809
0.999999389808
0.999999827946
0.999999384757
0.999999806299
1.000037083
0.9997607641
1.0011246284
1.0213260933
0.978577353012
1.67711131029
-1171.15008437
)
;

boundaryField
{
    top
    {
        type            bounceBack;
        value           uniform 1;
    }
    bottom
    {
        type            bounceBack;
        value           uniform 1;
    }
    left
    {
        type            cyclic;
    }
    right
    {
        type            cyclic;
    }
    frontAndBack
    {
        type            empty;
    }
}


// ************************************************************************* //
