/*--------------------------------*- C++ -*----------------------------------*\
| =========                 |                                                 |
| \\      /  F ield         | OpenFOAM: The Open Source CFD Toolbox           |
|  \\    /   O peration     | Version:  2.4.0                                 |
|   \\  /    A nd           | Web:      www.OpenFOAM.org                      |
|    \\/     M anipulation  |                                                 |
\*---------------------------------------------------------------------------*/
FoamFile
{
    version     2.0;
    format      ascii;
    class       volVectorField;
    location    "0.2";
    object      U;
}
// * * * * * * * * * * * * * * * * * * * * * * * * * * * * * * * * * * * * * //

dimensions      [0 1 -1 0 0 0 0];

internalField   nonuniform List<vector> 
400
(
(-2.30350189154 0.0731192990584 0)
(1.97091980788 -0.281370477287 0)
(-0.0138310873657 -0.137185490718 0)
(0.011127481931 0.0133959188506 0)
(0.00635724491809 0.00191443010471 0)
(-0.000835334446102 -0.00071662040774 0)
(2.32500222328e-05 6.20927127123e-05 0)
(1.41547368234e-05 7.7457609969e-06 0)
(-2.74850316862e-06 -2.50341491578e-06 0)
(4.53871984499e-07 -9.55833102685e-08 0)
(-1.1418308313e-06 -1.97819510845e-08 0)
(-7.06003305817e-06 8.99152042752e-06 0)
(0.000103807067293 -4.91249792692e-05 0)
(-0.000516073293794 -6.64806954307e-05 0)
(-0.00302796916927 0.00246404785237 0)
(-0.0161534449203 -0.00938188454017 0)
(-0.406173328861 0.0318916330337 0)
(-1.22920520271 -0.0721578961738 0)
(-2.50387863081 0.130339879996 0)
(-1.72721829431 -0.0954458148918 0)
(-6.3068894136 2.31388996749 0)
(-160.940557016 14.1162102124 0)
(1.67758374035 -0.151807306346 0)
(0.113014709232 -0.028759270932 0)
(-0.0125497719785 -0.00254356907439 0)
(0.000374684944034 0.000849982193802 0)
(0.000348943670413 -9.68702968524e-05 0)
(-6.12400291708e-05 -7.5585839891e-06 0)
(9.24281466433e-07 3.377238716e-06 0)
(7.75089100645e-07 -4.72379892695e-08 0)
(4.63073645009e-06 3.68138386802e-07 0)
(-1.25733417847e-05 -1.5091587825e-05 0)
(-0.00011495282519 7.50559673816e-05 0)
(0.00108921722154 8.69998771577e-05 0)
(-0.00292660931487 -0.0051446347181 0)
(-0.037281804038 -0.00469544665937 0)
(0.0101151321148 -0.165391721924 0)
(-0.752516911674 -0.351596849609 0)
(-2.05585176075 0.445123481342 0)
(7.08132835348 2.45333133524 0)
(-1.86345569399 0.417700012768 0)
(-0.0624760374014 0.178580072938 0)
(0.665866235722 -0.659851865506 0)
(0.0112588285867 -0.00389953960936 0)
(0.0396329312488 -0.00169624670654 0)
(-0.00205116395345 0.000470898130354 0)
(-0.00037629509099 -2.78917265354e-05 0)
(0.000124800090125 -6.97613640131e-06 0)
(-9.12979365567e-06 1.69246881312e-06 0)
(2.68312455268e-07 3.06328954925e-08 0)
(-1.16191627699e-05 -4.68152070347e-08 0)
(8.5219683305e-07 -3.41060050397e-06 0)
(0.000490874947024 2.00593203395e-05 0)
(-0.00362857960466 1.48496844536e-05 0)
(-0.015484614378 -0.00083751907509 0)
(-0.187319128446 0.00421261661551 0)
(-0.951917982775 -0.000774274540687 0)
(-2.5124571324 -1.03811104808 0)
(-8.59847792774 -1.14386876944 0)
(-1.94735251791 0.0828072310802 0)
(-10.7882662102 -1.14482179728 0)
(-4.16113865483 2.61739407567 0)
(1.12841903002 -0.296521118572 0)
(0.0126403408444 0.0530212056727 0)
(-0.00265112771238 0.00366211327913 0)
(0.000171460129611 -0.00156749684807 0)
(7.69301564355e-05 0.000176366254907 0)
(-1.68861880669e-05 1.24126946172e-05 0)
(5.61218358491e-07 -5.93017101761e-06 0)
(4.07696007144e-08 8.01133787913e-08 0)
(2.7646668513e-06 -8.32595388229e-07 0)
(-7.45769008615e-06 2.60631812755e-05 0)
(-5.63423782924e-05 -0.000125884341155 0)
(0.000545168571466 -0.000247382463248 0)
(-0.00162780651247 0.00828328876899 0)
(-0.0213457386145 -0.0128639165759 0)
(-1.11542534111 -0.156997632811 0)
(-9.86305043987 -1.48751036179 0)
(18.866466756 13.5729590609 0)
(-8.13037829301 0.364824076789 0)
(-0.865378983918 -0.0307820845809 0)
(1.14127015692 0.0219464693743 0)
(8.64956368032 0.807357473915 0)
(2.06142966216 0.0509920326104 0)
(-0.0119713690105 -0.00339280921298 0)
(0.00107652620605 0.00103816303623 0)
(0.000211621330095 -8.36398244736e-05 0)
(-5.40422114555e-05 -1.4092362488e-05 0)
(2.80634032869e-06 4.16298266794e-06 0)
(2.87948742028e-07 1.26999026479e-07 0)
(4.35874502546e-06 -2.44526914065e-07 0)
(1.37612588158e-07 -1.37741685656e-05 0)
(-0.00020334797926 8.17439458785e-05 0)
(0.00125354650699 3.24642774486e-05 0)
(-0.00364014064973 -0.00312651230454 0)
(-1.73515221165 -0.0324356820274 0)
(-1.12833432403 -0.0302938515075 0)
(3.3583062112 0.171822332559 0)
(-0.103923436075 -0.00427445924164 0)
(-2.54351020203 -0.129717221383 0)
(70.7342033646 26.0143851387 0)
(-3.5052294268 -0.633009226505 0)
(1027.1006627 111.02067148 0)
(-0.0182543046071 0.0119571714206 0)
(0.0252219277064 -0.000597557256857 0)
(-9.28946694985e-05 -0.000866286482095 0)
(-0.000496531224901 0.000101121611582 0)
(8.93090340644e-05 2.64260404875e-07 0)
(-1.2457930965e-06 -1.89935787355e-06 0)
(-1.2610245212e-06 -3.67900221186e-08 0)
(-6.7537605632e-06 -5.8746358953e-07 0)
(1.81490222199e-05 1.66222154729e-05 0)
(0.000160575907844 -8.13197094207e-05 0)
(-0.00160637628058 -0.000279370443399 0)
(0.0022707080771 0.00235660125432 0)
(-0.00118917942453 -0.0636540714392 0)
(-3.01368803754 -1.11749301611 0)
(7.64253979684 -0.158964398962 0)
(35.1154052033 -14.2961993416 0)
(9.1060902287 1.60874189087 0)
(-1.44152835183 0.0344982013648 0)
(4.93922455036 -0.00595294622707 0)
(1.25666116893 0.0285802163816 0)
(2.40576381271 0.00364162403556 0)
(-0.0270054954058 0.00385972867527 0)
(0.00406921566618 -0.0010243278514 0)
(0.000496464670605 6.95971193211e-05 0)
(-0.000148201545812 1.77021151402e-05 0)
(1.24721032859e-05 -4.95333011672e-06 0)
(-1.19433885554e-06 -6.56891364941e-09 0)
(1.53647919341e-05 2.84611253708e-07 0)
(-6.82371127442e-07 7.76309222838e-06 0)
(-0.000692210488227 -4.55640373181e-05 0)
(0.00378073026405 -3.03935470544e-05 0)
(-0.0453086696914 0.00172170352617 0)
(-1.44929329987 0.00650753636146 0)
(-1.09591235056 0.00236291385296 0)
(-1.82920804577 -0.0518187836128 0)
(-14.883028228 -0.772180517929 0)
(-2.00530633698 0.0166163434178 0)
(1.97447799814 -0.866079207201 0)
(-5.68060101611 0.354761629085 0)
(7.40744144929 -1.41272109927 0)
(0.0375542380864 -0.0590580766127 0)
(-0.00232135931645 -0.00295631053755 0)
(-4.34776328738e-05 0.00227507379171 0)
(0.000145563400384 -0.000256270736387 0)
(-2.59487363242e-05 -1.03084881631e-05 0)
(-1.10737927394e-07 6.5255933765e-06 0)
(1.52426764931e-06 3.36225116588e-07 0)
(-2.51189493324e-06 1.25913690217e-06 0)
(5.0156590525e-06 -4.27321827374e-05 0)
(3.35426367746e-05 0.000201329498999 0)
(-0.000406966412159 0.000524710503758 0)
(0.000283578119551 -0.00928033382616 0)
(-0.0206075059455 0.0820519445323 0)
(-1.56070890267 0.962252177951 0)
(1.01072312149 -3.99246129004 0)
(-1.00109152717 1.66164166601 0)
(-1.31839330908 -0.743077320306 0)
(0.933098992796 -1.32976600483 0)
(-0.388325629447 -1.87247899947 0)
(0.0784694189771 0.121590075793 0)
(-0.0027612409011 0.00952794161406 0)
(0.0383095692982 -0.000779778910875 0)
(-0.0016977292735 -6.46077389781e-06 0)
(-0.000376506978127 2.35288416812e-05 0)
(0.000111668631606 -1.22054462076e-05 0)
(-8.01977740549e-06 3.42318480849e-06 0)
(8.20682634613e-07 -1.0295635913e-06 0)
(-1.27716793968e-05 -8.90228180983e-07 0)
(6.02736059152e-06 1.67830515022e-05 0)
(0.000442431741778 -6.24407994873e-05 0)
(-0.00316841417334 -0.000125990207433 0)
(-0.00909396910393 0.00241547425938 0)
(-0.13514909656 -0.00990272422859 0)
(-0.886854979648 0.0062068894501 0)
(-1.07397558696 -0.0358690636432 0)
(-5.16154098564 0.0353455132051 0)
(-1.90106453851 -0.24119680342 0)
(0.949090356123 -1.88558180342 0)
(1.07879751951 -1.21515768498 0)
(0.897443833258 -0.878916163999 0)
(0.0346180788558 0.0489995652808 0)
(-0.00621594411171 0.00399722616036 0)
(0.000660166712473 -0.00166825489537 0)
(2.54965608304e-05 0.000176619324295 0)
(-8.37831231578e-06 1.99660216406e-05 0)
(2.21817238541e-06 -7.98866679901e-06 0)
(-2.86295973166e-06 5.12529559599e-07 0)
(9.84124559825e-06 -1.05464338311e-06 0)
(3.24943262983e-06 2.71021874219e-05 0)
(-0.000262051396605 -0.000120365975514 0)
(0.00131279957684 -0.00025433032391 0)
(-0.00145147507892 0.00680602058803 0)
(-0.0466512570676 -0.0164467838477 0)
(-1.36206993464 -0.865108757548 0)
(-10.3775124318 -1.45098034422 0)
(0.106285707698 1.12099729793 0)
(1.30633887785 -0.513982943353 0)
(-3.37687418971 3.38495347223 0)
(1.04268636846 -1.12779443364 0)
(1.17256410914 -1.02994327371 0)
(1.07527601381 -0.47501001982 0)
(-0.0126583732084 -0.00577936173206 0)
(0.000795464291266 0.00190041474662 0)
(0.000383632590165 -0.000232542351285 0)
(-7.85069435185e-05 -1.89820015933e-05 0)
(3.2200418336e-06 6.87118691691e-06 0)
(3.21405755184e-06 -2.29556659444e-07 0)
(6.19947581344e-06 1.79559109566e-06 0)
(2.0621598857e-06 -3.48469847666e-05 0)
(-0.000198787694444 0.000125670751412 0)
(0.00116958024032 0.000326626610375 0)
(-0.00261971989929 -0.00539715701096 0)
(-1.74524802586 -0.0612466677759 0)
(-1.11830203196 -0.0741812094969 0)
(-3.70905690511 -0.569498692886 0)
(-1.19097238635 -0.0360263524171 0)
(0.54377117675 -0.212333542575 0)
(1.51790502258 -2.02296268704 0)
(-4.13442520494 4.80212117607 0)
(1.19839527538 -0.669377282508 0)
(1.12337440065 -0.711603327185 0)
(1.00592250947 -0.0863132090909 0)
(-0.000610823970511 -0.000554799150781 0)
(-0.000885788222379 6.24949872639e-05 0)
(0.000235099474894 -2.19830696127e-06 0)
(-1.1404560137e-06 1.58119645253e-07 0)
(9.58701818268e-06 -5.53815676411e-07 0)
(-1.15295232936e-06 -5.66633046103e-07 0)
(9.12006514977e-06 1.28002138432e-05 0)
(0.000411718007292 -6.2170401235e-05 0)
(-0.00232989813187 -0.000167666034552 0)
(-0.00171129526628 0.00208939123827 0)
(0.00386555525157 -0.0356741533933 0)
(0.986152756265 -0.03544185826 0)
(1.52045605265 0.606213929633 0)
(-1.19427377057 0.740879484424 0)
(3.17315964773 -3.11291729415 0)
(1.71290228021 -1.90958836821 0)
(0.337649368029 -0.0273344452021 0)
(2.54105298172 -1.39157560478 0)
(11.1484693039 -6.51652786404 0)
(-0.0247115181494 0.00698565065459 0)
(0.00276713592558 -0.0017682375357 0)
(0.000613776765819 0.000183277205542 0)
(-7.94024127808e-05 2.65141693487e-05 0)
(6.1138560776e-05 -1.10474263844e-05 0)
(5.48098307746e-05 9.71967232654e-07 0)
(6.80764029406e-05 -1.96720704847e-06 0)
(5.02583959656e-05 2.10775125418e-05 0)
(-0.000465546557193 -6.42187841352e-05 0)
(0.00311630790992 -0.00020888628774 0)
(-0.0220531610435 0.00311471184064 0)
(-1.54741510046 0.0137257027067 0)
(-1.06476898439 0.000785462285679 0)
(-1.78498406998 0.109985887721 0)
(-1.20158554246 0.484729513308 0)
(-1.05843662349 0.941966820481 0)
(-0.925224863505 1.42362358829 0)
(-0.0234772760787 0.24646693377 0)
(1.54287997992 1.69872196869 0)
(0.0106438450912 -0.0251595775276 0)
(-0.000627485287383 -0.00208925955324 0)
(0.000345687106136 0.0015268022907 0)
(0.000333376193724 -0.000141183162575 0)
(0.000227254887531 -1.66518824458e-05 0)
(0.000254256541922 6.12245911361e-06 0)
(0.00025315029878 -1.57992439826e-07 0)
(0.000250964434581 8.39663172718e-07 0)
(0.000261570539511 -2.4789424571e-05 0)
(0.00025261607351 0.000112831695383 0)
(-0.00010935388785 0.000289243661955 0)
(0.00145157468682 -0.00453164907507 0)
(-0.00599895766081 0.0515013822311 0)
(-1.58008424321 0.684517028584 0)
(3.25700898927 -5.13174004551 0)
(-0.760211256259 0.605700091313 0)
(-1.28128391118 0.905149368807 0)
(-0.917330591883 1.18198142239 0)
(-2.53214653512 4.75495921724 0)
(-0.0214749295473 0.019145502361 0)
(-0.0165942570783 0.000295057790477 0)
(0.00681014788278 -0.000596297465641 0)
(0.000934903190007 0.000164217548771 0)
(0.000975420170635 -1.61508221099e-05 0)
(0.00114025509215 -3.97834278903e-06 0)
(0.00111233138843 1.67638384534e-06 0)
(0.00111178524303 -4.45016982633e-07 0)
(0.00110976308852 2.52737336621e-07 0)
(0.00111559163352 7.59087033623e-07 0)
(0.00118955316501 -1.40011060275e-05 0)
(0.000546735052436 2.93594626467e-05 0)
(0.0014364939725 0.000419732893694 0)
(0.0128846638821 -0.00294871104694 0)
(-0.166920661179 0.0124188983205 0)
(-1.29037165264 1.91712495974 0)
(-3.43723627189 2.64473965912 0)
(-3.01138230318 0.607885462438 0)
(-0.82569948521 -0.122155897671 0)
(0.65487024593 -0.2265851532 0)
(-36.8137142536 9.09641606625 0)
(-0.0095892084241 0.0140151134867 0)
(0.00769880980044 0.00127461599602 0)
(0.00426755748154 -0.000617218092277 0)
(0.00425074022411 5.65513393334e-05 0)
(0.00434001477513 8.08631492969e-06 0)
(0.00432398158965 -2.9909225906e-06 0)
(0.00432467061848 1.31838030208e-07 0)
(0.00432457334286 -4.96318915268e-07 0)
(0.00432466670964 8.89958801319e-06 0)
(0.00434217723184 -3.85653319383e-05 0)
(0.00420461071871 -0.000110893540484 0)
(0.00437509854486 0.00206130111801 0)
(0.00675803641724 -0.0119944774269 0)
(-1.11255454952 0.0330416255512 0)
(3.07324562878 0.0362668795043 0)
(0.650155398224 0.156266502274 0)
(3.6401572458 -1.5145224727 0)
(2.24310042603 -1.32121710142 0)
(1.52848525889 0.0291192181082 0)
(0.439858208076 0.0262799291191 0)
(1.96132823471 0.00517881966306 0)
(0.00364547724576 -0.000962711594213 0)
(0.0148137411827 0.0002441101141 0)
(0.0141308580383 -6.29644239271e-06 0)
(0.0139115055563 -7.43921964212e-06 0)
(0.0139583606006 1.36639609982e-06 0)
(0.0139560886699 -3.84432213165e-08 0)
(0.0139591789454 2.30809265112e-08 0)
(0.0139585204211 -2.35202024245e-06 0)
(0.0137957491275 8.63881905815e-06 0)
(0.01488461404 2.26871605979e-05 0)
(0.0127000835473 -0.000399748032349 0)
(-1.68272658759 -0.00351676184152 0)
(-1.07183491657 0.0269993252703 0)
(-279.897477486 19.634375572 0)
(-1.06225550348 0.130339386219 0)
(-1.94571522726 0.395784759004 0)
(-4.5816576049 5.00204442589 0)
(1.14158473231 -0.557639697301 0)
(-42.8756609474 -12.7425586968 0)
(0.00408330106549 -0.0042687685018 0)
(0.0433665383851 0.00107972901698 0)
(0.0360976953139 -0.00012872745901 0)
(0.0356355250975 -1.84909428256e-05 0)
(0.0359153540797 1.0256438055e-05 0)
(0.035883778519 -1.48882515346e-06 0)
(0.0358805676682 -1.1178807361e-07 0)
(0.0358800440651 1.90273538577e-08 0)
(0.0358820774295 -3.31319445337e-06 0)
(0.0359371046007 2.11318457336e-05 0)
(0.0355281536625 1.55594968822e-05 0)
(0.0360498028488 -0.000830859594327 0)
(0.0443314352958 0.00746244843507 0)
(-0.933138737368 -0.321629790863 0)
(-2.29288354368 0.433668464394 0)
(3.32019809392 -3.14338774352 0)
(0.762830544702 -0.542957069262 0)
(-0.221696391737 0.457311303686 0)
(-3.51705679467 -0.192720487516 0)
(1.62944170073 0.0792827742279 0)
(0.126572243363 0.00380945742905 0)
(0.0622423095269 0.000519096673843 0)
(0.0718987590057 -0.000200482037777 0)
(0.0723737281327 1.98462186748e-05 0)
(0.0719116923428 2.67033210871e-06 0)
(0.0719651393048 -1.10980016851e-06 0)
(0.0719716723385 6.91458865473e-08 0)
(0.0719694815526 -1.61832535035e-07 0)
(0.0719770007943 2.90042758512e-06 0)
(0.0719066622469 -1.25301107346e-05 0)
(0.0721161452983 -2.41554288444e-05 0)
(0.0732313562375 0.00056894813146 0)
(0.0540548540161 -0.00242578057316 0)
(0.0379001629713 -0.00360972325027 0)
(71.0517882981 9.89438193653 0)
(-1.13470863773 1.07024061847 0)
(3.88776075533 -3.4541225211 0)
(0.844113594192 -0.28418830835 0)
(13.2321746277 -0.290522787622 0)
(0.207405137945 0.091216498228 0)
(0.0833766303786 -0.00517745293656 0)
(0.105928058171 -0.00293886529187 0)
(0.10409496585 0.000663609251192 0)
(0.10349826502 -3.0588745602e-06 0)
(0.103633958008 -2.1463151488e-05 0)
(0.103633049374 3.60676025207e-06 0)
(0.103628635087 9.49496156607e-08 0)
(0.103629565494 3.03530310582e-07 0)
(0.103629025885 -2.41056061231e-06 0)
(0.103624208457 1.8211330509e-06 0)
(0.103674633552 7.86647798769e-05 0)
(0.103485827369 -0.000610689258531 0)
(0.103206087095 0.00165197591206 0)
(0.112908530551 0.0253960471788 0)
(0.0675551146338 -0.0879047882122 0)
(0.733906170939 0.361101184632 0)
(-0.688699516797 1.13090987814 0)
)
;

boundaryField
{
    top
    {
        type            fixedValue;
        value           uniform (0.1 0 0);
    }
    bottom
    {
        type            fixedValue;
        value           uniform (0 0 0);
    }
    left
    {
        type            cyclic;
    }
    right
    {
        type            cyclic;
    }
    frontAndBack
    {
        type            empty;
    }
}


// ************************************************************************* //
