/*--------------------------------*- C++ -*----------------------------------*\
| =========                 |                                                 |
| \\      /  F ield         | OpenFOAM: The Open Source CFD Toolbox           |
|  \\    /   O peration     | Version:  2.4.0                                 |
|   \\  /    A nd           | Web:      www.OpenFOAM.org                      |
|    \\/     M anipulation  |                                                 |
\*---------------------------------------------------------------------------*/
FoamFile
{
    version     2.0;
    format      ascii;
    class       volScalarField;
    location    "0.2";
    object      rho;
}
// * * * * * * * * * * * * * * * * * * * * * * * * * * * * * * * * * * * * * //

dimensions      [1 -3 0 0 0 0 0];

internalField   nonuniform List<scalar> 
100
(
-166666.005733
-93507.4934489
1907.54833559
52.9904794763
1.00330876696
0.997412424231
1.00058282573
0.999998995459
0.999979458392
1.00000323533
1346797.51729
-90904.7440676
-22286.4899318
285.570339039
12.4082306925
1.00990849877
0.998531691816
1.00007165911
1.00003542681
0.999992696126
-146152.074965
104281.063875
995.024560423
-12.0017052774
1.00041179267
0.996991909945
1.00121632069
0.999950539724
0.999978931967
1.00000370681
-20816.5416006
-5700.28603531
-12.6639913066
0.999721814143
0.999718335818
1.00053024522
1.00005109421
0.999981852887
0.9999989434
1.00000125982
1089.8269069
-24.0603677599
1.1322991428
0.969934685602
1.00332666091
1.00076699112
0.99979779616
1.0000087079
1.00000484858
0.999998779384
8386.75945227
47.2917616915
0.331716667259
0.977132346225
1.00053472424
1.00067679513
0.9998876752
1.00000317133
1.00000238639
0.99999941676
-5922.06344096
234.711596338
-24.4254337395
-2.74230659371
0.995995550777
0.998725718598
1.00037810031
0.999982367199
0.999993301768
1.00000143274
-5095.61190916
-1447.07321521
0.190094145871
0.94947307139
1.00019238007
1.00221191596
0.999693199512
0.999984444538
1.00001204132
0.999998536594
4021.00934009
-13.1006312734
-2.90591461212
1.07283612556
0.999543462366
0.997617117203
1.00052827924
1.00000322254
0.999982229812
1.00000293062
-7.43572306692
0.620363804971
1.28715486274
0.968416839949
0.998945736229
1.00141215903
0.999854220168
0.999977828358
1.00000851809
0.999999389808
)
;

boundaryField
{
    top
    {
        type            bounceBack;
        value           uniform 1;
    }
    bottom
    {
        type            bounceBack;
        value           nonuniform 0();
    }
    left
    {
        type            cyclic;
    }
    right
    {
        type            cyclic;
    }
    frontAndBack
    {
        type            empty;
    }
    procBoundary2to0
    {
        type            processor;
        value           nonuniform List<scalar> 10(9.85685286281 1.11778908789 1.03061393032 0.990806074876 1.00077175066 1.00000012689 0.999990543389 1.00000554697 0.999998380828 1.00000031667);
    }
    procBoundary2to3
    {
        type            processor;
        value           nonuniform List<scalar> 10(1.00000038519 0.999996234109 1.0000027527 1.00000002982 0.999999258381 0.999999789653 1.00000074619 0.999999691577 1.0000002275 1.00000008657);
    }
    procBoundary2to3throughleft
    {
        type            processorCyclic;
        value           nonuniform List<scalar> 10(214.840092347 51.9898470349 499.221128993 -4.99039687803 -6.9419444037 0.672185162458 359.239358167 -2.82068452301 0.783006911261 0.575021593365);
    }
}


// ************************************************************************* //
