/*--------------------------------*- C++ -*----------------------------------*\
| =========                 |                                                 |
| \\      /  F ield         | OpenFOAM: The Open Source CFD Toolbox           |
|  \\    /   O peration     | Version:  2.4.0                                 |
|   \\  /    A nd           | Web:      www.OpenFOAM.org                      |
|    \\/     M anipulation  |                                                 |
\*---------------------------------------------------------------------------*/
FoamFile
{
    version     2.0;
    format      ascii;
    class       volVectorField;
    location    "0.2";
    object      U;
}
// * * * * * * * * * * * * * * * * * * * * * * * * * * * * * * * * * * * * * //

dimensions      [0 1 -1 0 0 0 0];

internalField   nonuniform List<vector> 
100
(
(-3.37687418971 3.38495347223 -0)
(1.04268636846 -1.12779443364 -0)
(1.17256410914 -1.02994327371 0)
(1.07527601381 -0.47501001982 0)
(-0.0126583732084 -0.00577936173206 0)
(0.000795464291266 0.00190041474662 0)
(0.000383632590165 -0.000232542351285 0)
(-7.85069435185e-05 -1.89820015933e-05 0)
(3.2200418336e-06 6.87118691691e-06 0)
(3.21405755184e-06 -2.29556659444e-07 0)
(1.51790502258 -2.02296268704 0)
(-4.13442520494 4.80212117607 -0)
(1.19839527538 -0.669377282508 -0)
(1.12337440065 -0.711603327185 0)
(1.00592250947 -0.0863132090909 0)
(-0.000610823970511 -0.000554799150781 0)
(-0.000885788222379 6.24949872639e-05 0)
(0.000235099474894 -2.19830696127e-06 0)
(-1.1404560137e-06 1.58119645253e-07 0)
(9.58701818268e-06 -5.53815676411e-07 0)
(1.71290228021 -1.90958836821 -0)
(0.337649368029 -0.0273344452021 0)
(2.54105298172 -1.39157560478 0)
(11.1484693039 -6.51652786404 -0)
(-0.0247115181494 0.00698565065459 0)
(0.00276713592558 -0.0017682375357 0)
(0.000613776765819 0.000183277205542 0)
(-7.94024127808e-05 2.65141693487e-05 0)
(6.1138560776e-05 -1.10474263844e-05 0)
(5.48098307746e-05 9.71967232654e-07 0)
(-0.925224863505 1.42362358829 -0)
(-0.0234772760787 0.24646693377 -0)
(1.54287997992 1.69872196869 -0)
(0.0106438450912 -0.0251595775276 0)
(-0.000627485287383 -0.00208925955324 0)
(0.000345687106136 0.0015268022907 0)
(0.000333376193724 -0.000141183162575 0)
(0.000227254887531 -1.66518824458e-05 0)
(0.000254256541922 6.12245911361e-06 0)
(0.00025315029878 -1.57992439826e-07 0)
(-0.917330591883 1.18198142239 0)
(-2.53214653512 4.75495921724 -0)
(-0.0214749295473 0.019145502361 0)
(-0.0165942570783 0.000295057790477 0)
(0.00681014788278 -0.000596297465641 0)
(0.000934903190007 0.000164217548771 0)
(0.000975420170635 -1.61508221099e-05 0)
(0.00114025509215 -3.97834278903e-06 0)
(0.00111233138843 1.67638384534e-06 0)
(0.00111178524303 -4.45016982633e-07 0)
(-0.82569948521 -0.122155897671 0)
(0.65487024593 -0.2265851532 0)
(-36.8137142536 9.09641606625 0)
(-0.0095892084241 0.0140151134867 0)
(0.00769880980044 0.00127461599602 0)
(0.00426755748154 -0.000617218092277 0)
(0.00425074022411 5.65513393334e-05 0)
(0.00434001477513 8.08631492969e-06 0)
(0.00432398158965 -2.9909225906e-06 0)
(0.00432467061848 1.31838030208e-07 0)
(2.24310042603 -1.32121710142 -0)
(1.52848525889 0.0291192181082 0)
(0.439858208076 0.0262799291191 -0)
(1.96132823471 0.00517881966306 -0)
(0.00364547724576 -0.000962711594213 0)
(0.0148137411827 0.0002441101141 0)
(0.0141308580383 -6.29644239271e-06 0)
(0.0139115055563 -7.43921964212e-06 0)
(0.0139583606006 1.36639609982e-06 0)
(0.0139560886699 -3.84432213165e-08 0)
(-4.5816576049 5.00204442589 -0)
(1.14158473231 -0.557639697301 -0)
(-42.8756609474 -12.7425586968 0)
(0.00408330106549 -0.0042687685018 0)
(0.0433665383851 0.00107972901698 0)
(0.0360976953139 -0.00012872745901 0)
(0.0356355250975 -1.84909428256e-05 0)
(0.0359153540797 1.0256438055e-05 0)
(0.035883778519 -1.48882515346e-06 0)
(0.0358805676682 -1.1178807361e-07 0)
(-0.221696391737 0.457311303686 0)
(-3.51705679467 -0.192720487516 -0)
(1.62944170073 0.0792827742279 -0)
(0.126572243363 0.00380945742905 0)
(0.0622423095269 0.000519096673843 0)
(0.0718987590057 -0.000200482037777 0)
(0.0723737281327 1.98462186748e-05 0)
(0.0719116923428 2.67033210871e-06 0)
(0.0719651393048 -1.10980016851e-06 0)
(0.0719716723385 6.91458865473e-08 0)
(0.844113594192 -0.28418830835 -0)
(13.2321746277 -0.290522787622 0)
(0.207405137945 0.091216498228 0)
(0.0833766303786 -0.00517745293656 0)
(0.105928058171 -0.00293886529187 0)
(0.10409496585 0.000663609251192 0)
(0.10349826502 -3.0588745602e-06 0)
(0.103633958008 -2.1463151488e-05 0)
(0.103633049374 3.60676025207e-06 0)
(0.103628635087 9.49496156607e-08 0)
)
;

boundaryField
{
    top
    {
        type            fixedValue;
        value           uniform (0.1 0 0);
    }
    bottom
    {
        type            fixedValue;
        value           nonuniform 0();
    }
    left
    {
        type            cyclic;
    }
    right
    {
        type            cyclic;
    }
    frontAndBack
    {
        type            empty;
    }
    procBoundary2to0
    {
        type            processor;
        value           nonuniform List<vector> 10((0.0846832245055 -1.16369548442 0) (0.217613642723 -0.0928276099009 0) (-0.0200309938854 0.0645309988436 0) (-0.00146351059124 -0.00667657769768 0) (0.000824108884759 -0.000552815991893 0) (-0.0001272419087 0.000276076726788 0) (2.52902212415e-05 -2.65045131593e-05 0) (-4.29231309349e-06 -3.85541633503e-06 0) (2.28851818055e-07 1.6985852068e-06 0) (1.16421620258e-06 -5.15385266337e-07 0));
    }
    procBoundary2to3
    {
        type            processor;
        value           nonuniform List<vector> 10((9.38863042004e-07 -8.09833265558e-07 0) (1.23642314904e-05 -6.85498668092e-07 0) (4.32268570591e-05 6.78225024088e-07 0) (0.000210137657046 -4.0864518692e-07 0) (0.000952179295934 -2.01721787612e-07 0) (0.00386632545611 1.04396151884e-07 0) (0.0130217309647 -1.02471907289e-07 0) (0.0347064799404 3.97095457907e-08 0) (0.0714384393102 8.31301011676e-09 0) (0.104125389519 -1.45510885643e-07 0));
    }
    procBoundary2to3throughleft
    {
        type            processorCyclic;
        value           nonuniform List<vector> 10((-2.67832808944 -0.690643653765 0) (3.68502355313 -3.69170903987 0) (-1.58632730762 0.260238785583 0) (1.38473736727 -4.33595351146 -0) (-1.43092602312 -0.0386931846219 -0) (19.0843720043 -3.80975659099 0) (-2.21556041349 -0.0436695399848 0) (41.9681421767 -38.3652448983 -0) (-1.93052460698 0.183421881972 0) (0.289815364083 -0.388965130374 0));
    }
}


// ************************************************************************* //
