/*--------------------------------*- C++ -*----------------------------------*\
| =========                 |                                                 |
| \\      /  F ield         | OpenFOAM: The Open Source CFD Toolbox           |
|  \\    /   O peration     | Version:  2.4.0                                 |
|   \\  /    A nd           | Web:      www.OpenFOAM.org                      |
|    \\/     M anipulation  |                                                 |
\*---------------------------------------------------------------------------*/
FoamFile
{
    version     2.0;
    format      ascii;
    class       volScalarField;
    location    "100";
    object      rho;
}
// * * * * * * * * * * * * * * * * * * * * * * * * * * * * * * * * * * * * * //

dimensions      [1 -3 0 0 0 0 0];

internalField   nonuniform List<scalar> 
2500
(
0.809329457417
0.835331602599
0.851583439908
0.863025011797
0.871040934994
0.877416433822
0.882641069256
0.887133553572
0.891082998188
0.894630656559
0.897864405209
0.90084995685
0.903634878156
0.906255933856
0.908741638745
0.91111470472
0.91339337722
0.915592502367
0.917724242492
0.91979862677
0.921823956583
0.923807119892
0.925753833757
0.9276688356
0.929556034599
0.931418632711
0.933259221646
0.935079860649
0.936882138465
0.938667221885
0.94043589218
0.942188569821
0.943925325896
0.945645877214
0.947349554891
0.949035233295
0.950701177052
0.952344764506
0.953961937609
0.955546310524
0.957087564368
0.95856946176
0.95996775489
0.961251414461
0.962400424915
0.963444065766
0.964667384945
0.966645278292
0.971582800656
0.97752307823
0.82232827914
0.838373380487
0.850880646168
0.86123832439
0.869176653507
0.87578779365
0.881295742753
0.886050441675
0.890221094343
0.893952319985
0.89733775737
0.900449727413
0.903341021742
0.906052647185
0.908616376017
0.911057487585
0.913396251608
0.915649145884
0.91782966759
0.919948961331
0.922016279584
0.924039340349
0.926024603131
0.927977487684
0.929902548672
0.931803617585
0.933683919501
0.935546170844
0.937392662745
0.93922533391
0.941045836099
0.942855595447
0.94465587176
0.946447820126
0.948232554371
0.950011223122
0.951785084185
0.953555620278
0.955324616562
0.957094413774
0.958868012564
0.960650076948
0.962448075903
0.96427732887
0.966174495233
0.968213464489
0.970630948547
0.973712166168
0.978798464838
0.985017482443
0.842938581644
0.850367963185
0.857994806699
0.865457491448
0.871855799992
0.877572048957
0.882544611806
0.886964412768
0.890916086522
0.894499318533
0.89778118957
0.900818846371
0.903655587331
0.906326542195
0.908859622299
0.911277553235
0.91359885264
0.915838782298
0.918009978179
0.920122971207
0.922186575256
0.924208198658
0.926194089026
0.928149531606
0.930079010562
0.931986342683
0.933874789813
0.935747155456
0.937605869822
0.939453067198
0.94129065877
0.943120404703
0.944943987204
0.946763090544
0.948579483357
0.950395120215
0.95221222453
0.954033431614
0.955861798017
0.957701120532
0.959555696333
0.961432007608
0.963338735478
0.965297649296
0.967351869976
0.969623012578
0.972375953025
0.976221931553
0.982319031924
0.992344591303
0.864858187845
0.865006087193
0.867750600665
0.871837878878
0.876230997641
0.880659174724
0.884812271145
0.888687396263
0.892266037842
0.895585309381
0.898674925007
0.90156919916
0.904296850638
0.906883572074
0.909350912639
0.911717238437
0.913997990967
0.916206227027
0.91835297187
0.920447567353
0.922497942568
0.924510847693
0.926492045098
0.928446470817
0.930378370044
0.932291412945
0.934188794713
0.936073323872
0.937947501915
0.939813597487
0.941673717337
0.943529877826
0.945384077032
0.94723837616
0.949094979832
0.950956350717
0.952825294967
0.954705201146
0.956600100805
0.958515541952
0.960458556426
0.962442050333
0.964484378658
0.966632114351
0.968953540852
0.971650001122
0.974965799808
0.97973130456
0.986362417283
0.997995257265
0.886279314956
0.880702759113
0.879130677125
0.879955847336
0.882198514668
0.885111744825
0.888227099716
0.891364617028
0.894411206884
0.897336475325
0.900128294822
0.902793073207
0.905341030379
0.907785236869
0.91013845274
0.912412796411
0.914619171968
0.916767283628
0.91886563741
0.920921657909
0.922941799779
0.924931672349
0.926896153516
0.928839496372
0.930765425026
0.932677221652
0.934577805637
0.936469807018
0.938355636096
0.940237552105
0.942117732933
0.943998351413
0.945881658362
0.947770088868
0.949666378437
0.951573756877
0.95349612611
0.955438547793
0.957407498249
0.959412552731
0.961466454993
0.963592246891
0.965820163688
0.968220441718
0.970871127053
0.974015953744
0.977801911004
0.983110185601
0.989614265451
1.00096781487
0.905087347774
0.895565217041
0.890658265713
0.888754201969
0.889011585042
0.89041855347
0.892434748739
0.894748214164
0.897175002555
0.899624799332
0.902047038199
0.90442023906
0.906735463229
0.90899204903
0.911192898271
0.913342888012
0.915447530778
0.917512449985
0.919543022373
0.921544245449
0.923520675597
0.925476430056
0.927415213085
0.929340359272
0.931254883412
0.933161534397
0.935062850956
0.936961219557
0.938858935221
0.940758267916
0.942661536354
0.944571196484
0.946489944345
0.948420857146
0.950367552279
0.952334462065
0.954327083906
0.956352664589
0.958420507345
0.960544192652
0.962741186504
0.965041644394
0.967481136357
0.970139806078
0.973085076749
0.976560284669
0.98059816682
0.986013376888
0.992008061812
1.00206873315
0.920324509605
0.908614012134
0.90148766733
0.897542895657
0.896133971905
0.896178703771
0.897134315306
0.898611833433
0.900384047924
0.902315074363
0.904323521764
0.90636333338
0.908407929422
0.910443313073
0.912462479949
0.914462775613
0.916443956451
0.918407182579
0.920354339665
0.922287669439
0.924209540582
0.926122328103
0.928028350167
0.929929845214
0.93182897281
0.933727831135
0.935628486007
0.937533009712
0.939443528957
0.941362283928
0.943291699348
0.945234475616
0.947193697679
0.94917299053
0.951176691471
0.953210160217
0.955280037281
0.957395016186
0.959566068391
0.961808908133
0.964142933981
0.966600791231
0.969217394218
0.972071851493
0.975213455844
0.978861488512
0.982963224014
0.98821394947
0.993635991859
1.00223541573
0.931904483857
0.919447047745
0.9111122402
0.905808544357
0.903112521288
0.902013852485
0.902016072235
0.902704604973
0.903834266321
0.905240314241
0.906819810214
0.908507372312
0.910261702442
0.912056989891
0.913877093781
0.915712149146
0.917556241151
0.919406018883
0.921259764747
0.923116822933
0.924977224341
0.926841453993
0.928710303879
0.930584785571
0.932466081516
0.934355524027
0.936254594276
0.938164937627
0.940088393124
0.942027038258
0.943983248694
0.945959781284
0.947959875725
0.949987407075
0.952047050559
0.954144595667
0.956287180389
0.958484080847
0.960746814822
0.963091642216
0.965537921128
0.968117662557
0.970862146862
0.97384324649
0.977092393688
0.980794233579
0.984845654075
0.98981135329
0.994719536001
1.00205633544
0.940303895669
0.928100046407
0.919339992831
0.913259293523
0.909646501634
0.907645724362
0.906836170125
0.90681825021
0.907349230337
0.908251441935
0.909409548303
0.910744767703
0.912204616577
0.913753610779
0.915367736219
0.917030643188
0.918731144774
0.920461577038
0.922216696261
0.923992952983
0.925788001007
0.927600370511
0.929429247459
0.931274327327
0.933135719433
0.935013887888
0.936909619578
0.938824013943
0.940758491115
0.942714818723
0.944695156019
0.946702123523
0.948738891722
0.950809322615
0.952918119222
0.955071127527
0.957275536507
0.959540639214
0.961877818546
0.964302924307
0.966834214193
0.969501303703
0.972330716071
0.975384176991
0.97867821867
0.982361152102
0.986306394461
0.990962300135
0.995445812618
1.00180400043
0.946211485599
0.934836320624
0.926180069438
0.919767752682
0.915561202815
0.912889834576
0.911420879789
0.910796862415
0.910792359472
0.911230157396
0.911990618452
0.912987335761
0.914160267457
0.915466648227
0.916876105628
0.91836677177
0.919922791362
0.92153255804
0.923187520698
0.924881356305
0.926609397215
0.928368232018
0.930155425602
0.931969322872
0.933808911543
0.935673728219
0.937563797012
0.939479594376
0.941422035815
0.94339248408
0.945392776632
0.947425280168
0.949492964244
0.951599527557
0.953749527976
0.955948659981
0.958203913875
0.960524270015
0.962920574792
0.965407675689
0.968002106861
0.970730066796
0.973612938908
0.976701366533
0.980000150522
0.983624717651
0.987441652195
0.991807211539
0.995947502644
1.00157725254
0.950308978932
0.940007482088
0.931762760348
0.925327102906
0.920785060282
0.917645962757
0.915664192161
0.914538684978
0.914070768046
0.914093719077
0.914490194899
0.915171277086
0.91607275974
0.917146980344
0.918358797943
0.919681905812
0.921096499712
0.922587511489
0.924143399877
0.925755275441
0.927416281138
0.929121144746
0.930865855471
0.932647428347
0.934463732647
0.936313367823
0.93819557586
0.940110183076
0.942057566457
0.944038643508
0.946054882696
0.948108341418
0.950201722375
0.952338479968
0.954522925757
0.956760469335
0.95905772932
0.961423131581
0.963866683853
0.966401804099
0.969042882591
0.971812161237
0.974725899162
0.977824053866
0.981102523696
0.984649690099
0.988334216478
0.99244461475
0.996307807606
1.0013990324
0.953160409984
0.943962212849
0.936272602518
0.930005113971
0.92531897736
0.921877925965
0.919514060769
0.917986732787
0.917128685805
0.9167902796
0.916861394739
0.917254779292
0.917905027623
0.918761782514
0.919786675929
0.920950059402
0.922228945787
0.923605343841
0.925065099116
0.926597020502
0.928192247237
0.929843776485
0.931546112624
0.933295003568
0.935087242503
0.936920518964
0.938793308415
0.940704793204
0.94265480965
0.944643819747
0.946672903886
0.948743780485
0.950858842398
0.953021238735
0.955234950703
0.957504986595
0.959837439619
0.962239975144
0.964721516776
0.967293756273
0.969968694456
0.972764474054
0.975692545814
0.97878338317
0.982026359438
0.985489047252
0.989046238921
0.992938781207
0.99657674776
1.0012654841
0.955183447094
0.947000713613
0.939902823117
0.93390657567
0.929208095818
0.925592701035
0.922956671372
0.921116723214
0.919937912986
0.919291191394
0.91907695559
0.919212758654
0.91963441944
0.920290796144
0.921141699557
0.922155182992
0.923305834135
0.924573291792
0.92594119045
0.927396331293
0.928928065358
0.930527818098
0.932188726651
0.93390535897
0.935673496485
0.937489965551
0.939352507761
0.941259682204
0.943210794427
0.945205850142
0.947245529629
0.94933118748
0.951464866902
0.953649353684
0.955888219313
0.958185965597
0.960548028906
0.962981155481
0.965493015917
0.968093422305
0.970791920171
0.97360272233
0.976532995847
0.979605284176
0.982804346784
0.986182481494
0.989621925895
0.993330763103
0.996784178961
1.00116637411
0.956664134339
0.949359860284
0.942828763963
0.937146010664
0.932518809872
0.928822067156
0.926001956237
0.923925528472
0.922488416274
0.921583210576
0.92112265554
0.921031230475
0.921247820532
0.92172205533
0.922413136795
0.923287758749
0.924318791281
0.925484036485
0.926765317039
0.92814772639
0.929619053101
0.931169321541
0.932790430897
0.934475867176
0.936220473924
0.938020269094
0.939872299534
0.941774526795
0.943725739239
0.945725488283
0.947774044361
0.94987237612
0.952022141627
0.954225713189
0.956486187016
0.958807477454
0.961194270993
0.963652298371
0.966187895519
0.968808972843
0.971522703077
0.974339735268
0.977263574836
0.980310413095
0.983461866627
0.986759383283
0.990092583
0.993647187303
0.996948277259
1.00109212903
0.957787628419
0.951216193734
0.9451966669
0.939831353516
0.93532303559
0.931609072118
0.928672536795
0.926422198655
0.92478096411
0.923662355842
0.922992096062
0.922702802574
0.922737697791
0.923048363029
0.923594377123
0.92434187508
0.925262637506
0.926333118425
0.927533704913
0.928848072161
0.930262668797
0.931766289509
0.933349727593
0.935005488705
0.936727556137
0.938511197847
0.940352808482
0.94224978108
0.94420040389
0.946203780086
0.948259765801
0.95036892896
0.952532517531
0.954752455535
0.957031320374
0.959372389698
0.9617795508
0.964257483423
0.966811184009
0.969446737917
0.972169126627
0.974985894412
0.977897515564
0.980915248777
0.984018659405
0.987241661171
0.990480589499
0.993905817956
0.997080478743
1.0010355156
0.958669146545
0.952696493811
0.947122206138
0.942056283486
0.937689067373
0.933999345556
0.930996315029
0.928621847904
0.926822116482
0.925529760121
0.924683207489
0.924223675111
0.924099474352
0.924264952674
0.924680813802
0.925313279199
0.926133570725
0.927117222514
0.928243526059
0.929495006861
0.930856984904
0.932317191311
0.933865443933
0.935493370289
0.937194173044
0.938962431464
0.940793934175
0.942685539106
0.944635056751
0.946641154624
0.948703278336
0.950821590911
0.952996919033
0.955230721732
0.957525037697
0.959882489625
0.962306155679
0.964799678836
0.967366769035
0.970011826831
0.972737878231
0.975549841638
0.978445745105
0.981433104091
0.984490218364
0.987645849636
0.990802181895
0.994118895624
0.997188265547
1.00099151249
0.959378738492
0.953889824585
0.948693926549
0.943898155652
0.939677266473
0.93603624528
0.93300204014
0.930541901271
0.928621159469
0.92718917827
0.926196203671
0.925591932381
0.925330073556
0.925368221863
0.925668722203
0.926198368045
0.926928247435
0.927833333546
0.928892118344
0.930086219021
0.931400022208
0.932820352913
0.934336180122
0.935938354706
0.937619379714
0.939373209902
0.94119507808
0.943081345548
0.945029373576
0.947037414069
0.949104514969
0.951230441388
0.953415601358
0.95566098947
0.957968107248
0.960338930745
0.962775751028
0.965281225755
0.967857871071
0.970508578714
0.973234676622
0.97603891306
0.978917382991
0.981874810855
0.984888779565
0.987984562801
0.99106931523
0.994295112027
0.997276726382
1.00095675339
0.959958741416
0.954858131092
0.949978327851
0.945418894836
0.941338721224
0.937758553287
0.934716909459
0.93219995734
0.93018835347
0.92864560064
0.92753249963
0.926806695582
0.926427248453
0.926355193699
0.926554820583
0.926993826004
0.927643482291
0.928478487907
0.929476783417
0.93061928831
0.931889632247
0.933273880698
0.934760274925
0.936338988855
0.938001907636
0.939742428156
0.941555281397
0.943436375411
0.945382656771
0.947391989013
0.949463043894
0.951595205991
0.953788479908
0.956043411612
0.958360985398
0.960742560759
0.963189688589
0.965704119196
0.968287292973
0.970940784781
0.973664482031
0.976459373615
0.979320054641
0.982249197754
0.985224039042
0.988267505291
0.991290909082
0.994440795571
0.997349442266
1.00092900001
0.960435063642
0.955644469447
0.951024861514
0.946667103868
0.942715472646
0.939199665919
0.936165405236
0.933612629926
0.931533954503
0.929904494036
0.92869415779
0.927867737024
0.927389325659
0.927223357535
0.927336182621
0.927696591109
0.928276255393
0.929049813512
0.929994853758
0.931091776113
0.932323609068
0.933675792767
0.935135955206
0.936693690276
0.93834034682
0.940068832253
0.941873432885
0.943749651216
0.94569405903
0.947704165257
0.949778294749
0.951915478263
0.954115343343
0.956378016384
0.958703999838
0.961094084223
0.963549146029
0.966070124233
0.968657515976
0.971311773928
0.974031589643
0.976816550328
0.979660106912
0.982563442045
0.98550368282
0.988502182969
0.991473686853
0.994560640589
0.997409001482
1.00090675264
0.960824023039
0.95627893609
0.951870128117
0.947680411315
0.943841416095
0.940387562955
0.937368817432
0.934794935037
0.932667647137
0.930971352757
0.92968357334
0.928775286085
0.9282151091
0.92797064706
0.928010270009
0.928303926635
0.928823811474
0.929544648405
0.930443824951
0.931501367454
0.932699837916
0.934024172255
0.935461492163
0.937000904825
0.938633303515
0.940351175652
0.942148422539
0.944020192494
0.94596272715
0.947973220376
0.950049686352
0.952190836996
0.954395958896
0.956664799213
0.958997426717
0.961394124272
0.963855173543
0.966380809653
0.96897072563
0.971624441185
0.97433967706
0.977114923591
0.9799427737
0.982823341016
0.985733785349
0.988694409391
0.991622747365
0.994658169735
0.9974573089
1.00088899038
0.961136291056
0.956782731305
0.952541119388
0.948487601568
0.944743386605
0.941345128221
0.938345120143
0.935759968338
0.933598187332
0.931851390251
0.930503248378
0.929529888526
0.928903813694
0.928595432816
0.928574968608
0.928813487981
0.929283747339
0.92996064115
0.930821463495
0.931845982281
0.933016407218
0.934317278034
0.935735309334
0.937259210931
0.938879499919
0.940588313743
0.942379230318
0.944247098238
0.946187877699
0.948198492109
0.95027668729
0.952420898463
0.954630115675
0.956903756593
0.959241514735
0.961643237119
0.964108699836
0.966637548235
0.969228811724
0.971881256488
0.974591835578
0.977358199335
0.980172309958
0.983033525182
0.985919110514
0.988848669955
0.991741958413
0.994736036192
0.997495778589
1.00087500654
0.961379087304
0.95717084895
0.953057595691
0.949110363253
0.945442186537
0.942090587627
0.939109016291
0.93651873737
0.934333158083
0.932549299386
0.931155597717
0.930132270654
0.929454985855
0.929096489967
0.929028592648
0.929223353041
0.929654059854
0.930295809759
0.931125871703
0.932123842774
0.933271675812
0.934553610183
0.935956045194
0.937467378604
0.939077829145
0.940779254484
0.942564972263
0.944429588333
0.946368833603
0.948379409906
0.950458842148
0.952605337007
0.954817639262
0.957094894401
0.959436487115
0.961841908089
0.964310523573
0.966841506437
0.969433361188
0.972084268588
0.974790595963
0.977549369886
0.980352101567
0.983197625837
0.986063338641
0.988968385018
0.991834230222
0.994796226303
0.997525457857
1.00086430673
0.961557374763
0.957453812904
0.953433767154
0.949564636931
0.945953455094
0.942637945267
0.939672051424
0.937080079056
0.934878795768
0.933069058695
0.931642775939
0.930583204832
0.929868410965
0.929472943598
0.929369860646
0.92953202108
0.929933160925
0.930548567175
0.931355519435
0.932333508206
0.933464308759
0.934731945279
0.936122586964
0.937624401164
0.939227384495
0.940923185008
0.942704924274
0.944567024379
0.946505041854
0.948515509303
0.950595782307
0.952743891954
0.954958394443
0.957238226237
0.959582535593
0.961990541836
0.964461301208
0.966993632496
0.969585650817
0.972235108734
0.974937951395
0.977690765418
0.980484754173
0.983318404999
0.986169236005
0.989056099524
0.991901706017
0.994840197603
0.997547109084
1.00085654634
0.96167450552
0.957638774524
0.953679444705
0.94986160242
0.946288350155
0.942997360586
0.940042743503
0.937450625369
0.935239868344
0.933413780292
0.931966531151
0.930883387321
0.930144021546
0.929724206227
0.92959785792
0.929738394789
0.930119873845
0.930717727478
0.931509256628
0.932473891196
0.933593295435
0.934851355032
0.936234088922
0.937729512664
0.939327475638
0.941019486288
0.94279853508
0.944658920787
0.946596082538
0.948606438665
0.950687230132
0.952836368987
0.955052283519
0.957333768564
0.959679812545
0.962089452052
0.964561535583
0.967094646242
0.969686641855
0.972334994935
0.975035377486
0.97778409596
0.980572162643
0.983397853422
0.986238778598
0.989113617644
0.991945893674
0.994868972849
0.997561264163
1.00085149229
0.961732568133
0.957730186068
0.953800795064
0.950008360919
0.946454043946
0.94317544124
0.940226699144
0.937634794809
0.935419594358
0.93358559867
0.932128092077
0.931033339516
0.930281819249
0.929849921238
0.929711999056
0.929841758141
0.930213422802
0.930802503692
0.931586316727
0.932544264683
0.933657958549
0.93491121628
0.936289982644
0.937782197865
0.939377637973
0.941067741654
0.942845433709
0.944704951014
0.946641673655
0.948651962389
0.950733000355
0.952882639486
0.955099243467
0.957381535644
0.959728423877
0.962138852866
0.964611566955
0.96714503156
0.969736976608
0.972384736252
0.975083848445
0.977830483467
0.980615562235
0.983437260757
0.986273238494
0.989142094745
0.991967753791
0.994883202408
0.997568260007
1.00084899994
0.961732568133
0.957730186068
0.953800795064
0.950008360919
0.946454043946
0.94317544124
0.940226699144
0.937634794809
0.935419594358
0.93358559867
0.932128092077
0.931033339516
0.930281819249
0.929849921238
0.929711999056
0.929841758141
0.930213422802
0.930802503692
0.931586316727
0.932544264683
0.933657958549
0.93491121628
0.936289982644
0.937782197865
0.939377637973
0.941067741654
0.942845433709
0.944704951014
0.946641673655
0.948651962389
0.950733000355
0.952882639486
0.955099243467
0.957381535644
0.959728423877
0.962138852866
0.964611566955
0.96714503156
0.969736976608
0.972384736252
0.975083848445
0.977830483467
0.980615562235
0.983437260757
0.986273238494
0.989142094745
0.991967753791
0.994883202408
0.997568260007
1.00084899994
0.96167450552
0.957638774524
0.953679444705
0.94986160242
0.946288350155
0.942997360586
0.940042743503
0.937450625369
0.935239868344
0.933413780292
0.931966531151
0.930883387321
0.930144021546
0.929724206227
0.92959785792
0.929738394789
0.930119873845
0.930717727478
0.931509256628
0.932473891196
0.933593295435
0.934851355032
0.936234088922
0.937729512664
0.939327475638
0.941019486288
0.94279853508
0.944658920787
0.946596082538
0.948606438665
0.950687230132
0.952836368987
0.955052283519
0.957333768564
0.959679812545
0.962089452052
0.964561535583
0.967094646242
0.969686641855
0.972334994935
0.975035377486
0.97778409596
0.980572162643
0.983397853422
0.986238778598
0.989113617644
0.991945893674
0.994868972849
0.997561264163
1.00085149229
0.961557374763
0.957453812904
0.953433767154
0.949564636931
0.945953455094
0.942637945267
0.939672051424
0.937080079056
0.934878795768
0.933069058695
0.931642775939
0.930583204832
0.929868410965
0.929472943598
0.929369860646
0.92953202108
0.929933160925
0.930548567175
0.931355519435
0.932333508206
0.933464308759
0.934731945279
0.936122586964
0.937624401164
0.939227384495
0.940923185008
0.942704924274
0.944567024379
0.946505041854
0.948515509303
0.950595782307
0.952743891954
0.954958394443
0.957238226237
0.959582535593
0.961990541836
0.964461301208
0.966993632496
0.969585650817
0.972235108734
0.974937951395
0.977690765418
0.980484754173
0.983318404999
0.986169236005
0.989056099524
0.991901706017
0.994840197603
0.997547109084
1.00085654634
0.961379087304
0.95717084895
0.953057595691
0.949110363253
0.945442186537
0.942090587627
0.939109016291
0.93651873737
0.934333158083
0.932549299386
0.931155597717
0.930132270654
0.929454985855
0.929096489967
0.929028592648
0.929223353041
0.929654059854
0.930295809759
0.931125871703
0.932123842774
0.933271675812
0.934553610183
0.935956045194
0.937467378604
0.939077829145
0.940779254484
0.942564972263
0.944429588333
0.946368833603
0.948379409906
0.950458842148
0.952605337007
0.954817639262
0.957094894401
0.959436487115
0.961841908089
0.964310523573
0.966841506437
0.969433361188
0.972084268588
0.974790595963
0.977549369886
0.980352101567
0.983197625837
0.986063338641
0.988968385018
0.991834230222
0.994796226303
0.997525457857
1.00086430673
0.961136291056
0.956782731305
0.952541119388
0.948487601568
0.944743386605
0.941345128221
0.938345120143
0.935759968338
0.933598187332
0.931851390251
0.930503248378
0.929529888526
0.928903813694
0.928595432816
0.928574968608
0.928813487981
0.929283747339
0.92996064115
0.930821463495
0.931845982281
0.933016407218
0.934317278034
0.935735309334
0.937259210931
0.938879499919
0.940588313743
0.942379230318
0.944247098238
0.946187877699
0.948198492109
0.95027668729
0.952420898463
0.954630115675
0.956903756593
0.959241514735
0.961643237119
0.964108699836
0.966637548235
0.969228811724
0.971881256488
0.974591835578
0.977358199335
0.980172309958
0.983033525182
0.985919110514
0.988848669955
0.991741958413
0.994736036192
0.997495778589
1.00087500654
0.960824023039
0.95627893609
0.951870128117
0.947680411315
0.943841416095
0.940387562955
0.937368817432
0.934794935037
0.932667647137
0.930971352757
0.92968357334
0.928775286085
0.9282151091
0.92797064706
0.928010270009
0.928303926635
0.928823811474
0.929544648405
0.930443824951
0.931501367454
0.932699837916
0.934024172255
0.935461492163
0.937000904825
0.938633303515
0.940351175652
0.942148422539
0.944020192494
0.94596272715
0.947973220376
0.950049686352
0.952190836996
0.954395958896
0.956664799213
0.958997426717
0.961394124272
0.963855173543
0.966380809653
0.96897072563
0.971624441185
0.97433967706
0.977114923591
0.9799427737
0.982823341016
0.985733785349
0.988694409391
0.991622747365
0.994658169735
0.9974573089
1.00088899038
0.960435063642
0.955644469447
0.951024861514
0.946667103868
0.942715472646
0.939199665919
0.936165405236
0.933612629926
0.931533954503
0.929904494036
0.92869415779
0.927867737024
0.927389325659
0.927223357535
0.927336182621
0.927696591109
0.928276255393
0.929049813512
0.929994853758
0.931091776113
0.932323609068
0.933675792767
0.935135955206
0.936693690276
0.93834034682
0.940068832253
0.941873432885
0.943749651216
0.94569405903
0.947704165257
0.949778294749
0.951915478263
0.954115343343
0.956378016384
0.958703999838
0.961094084223
0.963549146029
0.966070124233
0.968657515976
0.971311773928
0.974031589643
0.976816550328
0.979660106912
0.982563442045
0.98550368282
0.988502182969
0.991473686853
0.994560640589
0.997409001482
1.00090675264
0.959958741416
0.954858131092
0.949978327851
0.945418894836
0.941338721224
0.937758553287
0.934716909459
0.93219995734
0.93018835347
0.92864560064
0.92753249963
0.926806695582
0.926427248453
0.926355193699
0.926554820583
0.926993826004
0.927643482291
0.928478487907
0.929476783417
0.93061928831
0.931889632247
0.933273880698
0.934760274925
0.936338988855
0.938001907636
0.939742428156
0.941555281397
0.943436375411
0.945382656771
0.947391989013
0.949463043894
0.951595205991
0.953788479908
0.956043411612
0.958360985398
0.960742560759
0.963189688589
0.965704119196
0.968287292973
0.970940784781
0.973664482031
0.976459373615
0.979320054641
0.982249197754
0.985224039042
0.988267505291
0.991290909082
0.994440795571
0.997349442266
1.00092900001
0.959378738492
0.953889824585
0.948693926549
0.943898155652
0.939677266473
0.93603624528
0.93300204014
0.930541901271
0.928621159469
0.92718917827
0.926196203671
0.925591932381
0.925330073556
0.925368221863
0.925668722203
0.926198368045
0.926928247435
0.927833333546
0.928892118344
0.930086219021
0.931400022208
0.932820352913
0.934336180122
0.935938354706
0.937619379714
0.939373209902
0.94119507808
0.943081345548
0.945029373576
0.947037414069
0.949104514969
0.951230441388
0.953415601358
0.95566098947
0.957968107248
0.960338930745
0.962775751028
0.965281225755
0.967857871071
0.970508578714
0.973234676622
0.97603891306
0.978917382991
0.981874810855
0.984888779565
0.987984562801
0.99106931523
0.994295112027
0.997276726382
1.00095675339
0.958669146545
0.952696493811
0.947122206138
0.942056283486
0.937689067373
0.933999345556
0.930996315029
0.928621847904
0.926822116482
0.925529760121
0.924683207489
0.924223675111
0.924099474352
0.924264952674
0.924680813802
0.925313279199
0.926133570725
0.927117222514
0.928243526059
0.929495006861
0.930856984904
0.932317191311
0.933865443933
0.935493370289
0.937194173044
0.938962431464
0.940793934175
0.942685539106
0.944635056751
0.946641154624
0.948703278336
0.950821590911
0.952996919033
0.955230721732
0.957525037697
0.959882489625
0.962306155679
0.964799678836
0.967366769035
0.970011826831
0.972737878231
0.975549841638
0.978445745105
0.981433104091
0.984490218364
0.987645849636
0.990802181895
0.994118895624
0.997188265547
1.00099151249
0.957787628419
0.951216193734
0.9451966669
0.939831353516
0.93532303559
0.931609072118
0.928672536795
0.926422198655
0.92478096411
0.923662355842
0.922992096062
0.922702802574
0.922737697791
0.923048363029
0.923594377123
0.92434187508
0.925262637506
0.926333118425
0.927533704913
0.928848072161
0.930262668797
0.931766289509
0.933349727593
0.935005488705
0.936727556137
0.938511197847
0.940352808482
0.94224978108
0.94420040389
0.946203780086
0.948259765801
0.95036892896
0.952532517531
0.954752455535
0.957031320374
0.959372389698
0.9617795508
0.964257483423
0.966811184009
0.969446737917
0.972169126627
0.974985894412
0.977897515564
0.980915248777
0.984018659405
0.987241661171
0.990480589499
0.993905817956
0.997080478743
1.0010355156
0.956664134339
0.949359860284
0.942828763963
0.937146010664
0.932518809872
0.928822067156
0.926001956237
0.923925528472
0.922488416274
0.921583210576
0.92112265554
0.921031230475
0.921247820532
0.92172205533
0.922413136795
0.923287758749
0.924318791281
0.925484036485
0.926765317039
0.92814772639
0.929619053101
0.931169321541
0.932790430897
0.934475867176
0.936220473924
0.938020269094
0.939872299534
0.941774526795
0.943725739239
0.945725488283
0.947774044361
0.94987237612
0.952022141627
0.954225713189
0.956486187016
0.958807477454
0.961194270993
0.963652298371
0.966187895519
0.968808972843
0.971522703077
0.974339735268
0.977263574836
0.980310413095
0.983461866627
0.986759383283
0.990092583
0.993647187303
0.996948277259
1.00109212903
0.955183447094
0.947000713613
0.939902823117
0.93390657567
0.929208095818
0.925592701035
0.922956671372
0.921116723214
0.919937912986
0.919291191394
0.91907695559
0.919212758654
0.91963441944
0.920290796144
0.921141699557
0.922155182992
0.923305834135
0.924573291792
0.92594119045
0.927396331293
0.928928065358
0.930527818098
0.932188726651
0.93390535897
0.935673496485
0.937489965551
0.939352507761
0.941259682204
0.943210794427
0.945205850142
0.947245529629
0.94933118748
0.951464866902
0.953649353684
0.955888219313
0.958185965597
0.960548028906
0.962981155481
0.965493015917
0.968093422305
0.970791920171
0.97360272233
0.976532995847
0.979605284176
0.982804346784
0.986182481494
0.989621925895
0.993330763103
0.996784178961
1.00116637411
0.953160409984
0.943962212849
0.936272602518
0.930005113971
0.92531897736
0.921877925965
0.919514060769
0.917986732787
0.917128685805
0.9167902796
0.916861394739
0.917254779292
0.917905027623
0.918761782514
0.919786675929
0.920950059402
0.922228945787
0.923605343841
0.925065099116
0.926597020502
0.928192247237
0.929843776485
0.931546112624
0.933295003568
0.935087242503
0.936920518964
0.938793308415
0.940704793204
0.94265480965
0.944643819747
0.946672903886
0.948743780485
0.950858842398
0.953021238735
0.955234950703
0.957504986595
0.959837439619
0.962239975144
0.964721516776
0.967293756273
0.969968694456
0.972764474054
0.975692545814
0.97878338317
0.982026359438
0.985489047252
0.989046238921
0.992938781207
0.99657674776
1.0012654841
0.950308978932
0.940007482088
0.931762760348
0.925327102906
0.920785060282
0.917645962757
0.915664192161
0.914538684978