/*--------------------------------*- C++ -*----------------------------------*\
| =========                 |                                                 |
| \\      /  F ield         | OpenFOAM: The Open Source CFD Toolbox           |
|  \\    /   O peration     | Version:  2.4.0                                 |
|   \\  /    A nd           | Web:      www.OpenFOAM.org                      |
|    \\/     M anipulation  |                                                 |
\*---------------------------------------------------------------------------*/
FoamFile
{
    version     2.0;
    format      ascii;
    class       volScalarField;
    location    "100";
    object      rho;
}
// * * * * * * * * * * * * * * * * * * * * * * * * * * * * * * * * * * * * * //

dimensions      [1 -3 0 0 0 0 0];

internalField   nonuniform List<scalar> 
2500
(
1.0000183727
1.00001862226
1.0000185081
1.00001831614
1.00001804618
1.0000177321
1.0000173892
1.00001702907
1.00001665799
1.00001627971
1.00001589644
1.00001550954
1.00001511991
1.00001472818
1.00001433481
1.0000139401
1.00001354432
1.00001314765
1.00001275022
1.00001235214
1.0000119535
1.00001155437
1.00001115479
1.00001075481
1.00001035445
1.00000995377
1.00000955277
1.00000915151
1.00000875001
1.00000834832
1.0000079465
1.0000075446
1.00000714273
1.00000674098
1.00000633952
1.00000593851
1.00000553822
1.00000513898
1.00000474122
1.00000434558
1.00000395294
1.00000356467
1.00000318295
1.00000281157
1.00000245714
1.00000213219
1.0000018554
1.00000166771
1.00000159035
1.00000191138
1.00001869545
1.00001872217
1.00001849748
1.00001824632
1.00001795264
1.00001763557
1.00001729906
1.0000169486
1.00001658757
1.00001621861
1.00001584358
1.00001546386
1.00001508045
1.00001469411
1.0000143054
1.00001391477
1.00001352255
1.00001312903
1.0000127344
1.00001233884
1.00001194249
1.00001154547
1.00001114787
1.00001074978
1.00001035129
1.00000995246
1.00000955336
1.00000915408
1.0000087547
1.0000083553
1.000007956
1.00000755693
1.00000715824
1.00000676011
1.0000063628
1.00000596658
1.00000557185
1.00000517909
1.00000478894
1.00000440223
1.0000040201
1.0000036441
1.00000327636
1.00000291992
1.00000257887
1.00000225969
1.00000196842
1.00000172585
1.0000015247
1.00000157388
1.0000189897
1.00001884358
1.00001856363
1.00001827854
1.00001796611
1.00001763821
1.00001729596
1.00001694266
1.00001658045
1.00001621121
1.00001583639
1.00001545711
1.00001507426
1.0000146885
1.00001430039
1.00001391033
1.00001351865
1.00001312562
1.00001273147
1.00001233635
1.00001194041
1.00001154378
1.00001114656
1.00001074884
1.0000103507
1.00000995224
1.00000955351
1.00000915462
1.00000875564
1.00000835668
1.00000795784
1.00000755928
1.00000716113
1.00000676361
1.00000636696
1.00000597146
1.00000557749
1.00000518553
1.00000479618
1.00000441021
1.00000402863
1.00000365273
1.00000328422
1.00000292532
1.00000257868
1.00000224825
1.00000193645
1.00000165552
1.00000138885
1.00000124984
1.00001920701
1.0000189525
1.00001863221
1.0000183172
1.00001798655
1.00001764663
1.00001729701
1.00001693936
1.00001657478
1.0000162044
1.0000158292
1.00001544999
1.00001506746
1.00001468217
1.00001429459
1.00001390508
1.00001351397
1.00001312149
1.00001272785
1.00001233324
1.00001193779
1.00001154162
1.00001114486
1.00001074758
1.00001034989
1.00000995187
1.0000095536
1.00000915518
1.00000875669
1.00000835825
1.00000795998
1.000007562
1.00000716449
1.00000676765
1.00000637171
1.00000597695
1.00000558374
1.0000051925
1.00000480376
1.0000044182
1.00000403661
1.00000365998
1.00000328947
1.00000292647
1.00000257244
1.00000222938
1.00000189761
1.00000158322
1.00000126882
1.0000010121
1.00001937463
1.00001905129
1.00001870351
1.00001836482
1.00001801863
1.00001766732
1.00001730973
1.00001694654
1.0000165782
1.00001620533
1.00001582851
1.00001544831
1.0000150652
1.00001467962
1.00001429194
1.00001390247
1.00001351147
1.00001311916
1.00001272573
1.00001233135
1.00001193614
1.00001154023
1.00001114372
1.0000107467
1.00001034928
1.00000995153
1.00000955354
1.0000091554
1.0000087572
1.00000835905
1.00000796107
1.00000756339
1.00000716617
1.00000676959
1.00000637386
1.00000597926
1.00000558608
1.00000519469
1.00000480552
1.0000044191
1.000004036
1.00000365692
1.00000328257
1.00000291377
1.00000255118
1.00000219564
1.00000184646
1.00000150555
1.00000115856
1.0000008285
1.0000195038
1.00001913639
1.00001876961
1.00001841235
1.00001805304
1.00001769154
1.00001732642
1.00001695765
1.00001658525
1.00001620947
1.0000158306
1.00001544898
1.00001506491
1.00001467871
1.00001429064
1.00001390096
1.00001350987
1.00001311756
1.00001272419
1.00001232991
1.00001193484
1.00001153908
1.00001114275
1.00001074592
1.00001034869
1.00000995114
1.00000955335
1.00000915542
1.00000875742
1.00000835947
1.00000796167
1.00000756416
1.00000716706
1.00000677056
1.00000637483
1.00000598011
1.00000558664
1.00000519472
1.00000480469
1.00000441691
1.0000040318
1.00000364976
1.0000032712
1.00000289647
1.00000252574
1.00000215906
1.00000179524
1.00000143366
1.00000106411
1.00000068783
1.00001960559
1.0000192095
1.00001882978
1.00001845841
1.0000180884
1.00001771811
1.00001734614
1.00001697203
1.00001659553
1.00001621664
1.00001583543
1.00001545207
1.00001506673
1.00001467961
1.00001429089
1.00001390075
1.00001350936
1.00001311686
1.0000127234
1.00001232908
1.00001193401
1.0000115383
1.00001114204
1.0000107453
1.00001034816
1.00000995072
1.00000955304
1.00000915521
1.00000875731
1.00000835943
1.00000796168
1.00000756417
1.00000716703
1.0000067704
1.00000637443
1.00000597932
1.00000558526
1.00000519247
1.0000048012
1.00000441169
1.00000402418
1.0000036389
1.00000325601
1.00000287557
1.0000024974
1.00000212109
1.00000174534
1.00000136812
1.00000098317
1.00000057749
1.00001968716
1.00001927202
1.00001888342
1.00001850145
1.00001812285
1.00001774515
1.00001736714
1.00001698813
1.00001660773
1.00001622575
1.00001584212
1.00001545689
1.0000150701
1.00001468188
1.00001429233
1.00001390158
1.00001350973
1.00001311691
1.00001272322
1.00001232875
1.00001193359
1.00001153783
1.00001114154
1.00001074481
1.00001034769
1.00000995027
1.00000955262
1.0000091548
1.0000087569
1.000008359
1.00000796119
1.00000756357
1.00000716624
1.00000676932
1.00000637295
1.00000597726
1.0000055824
1.00000518854
1.00000479582
1.00000440439
1.00000401438
1.00000362586
1.00000323882
1.00000285312
1.00000246842
1.00000208401
1.00000169872
1.00000130983
1.00000091432
1.00000048963
1.00001975359
1.00001932555
1.00001893084
1.00001854096
1.00001815556
1.00001777172
1.00001738851
1.00001700513
1.00001662112
1.00001623618
1.00001585017
1.00001546301
1.00001507471
1.00001468528
1.00001429478
1.00001390329
1.00001351088
1.00001311762
1.00001272359
1.00001232888
1.00001193353
1.00001153764
1.00001114126
1.00001074445
1.00001034728
1.00000994981
1.00000955211
1.00000915423
1.00000875625
1.00000835823
1.00000796026
1.00000756242
1.00000716479
1.00000676746
1.00000637055
1.00000597414
1.00000557835
1.00000518327
1.000004789
1.0000043956
1.00000400309
1.00000361146
1.00000322058
1.00000283019
1.00000243986
1.00000204877
1.00000165598
1.00000125844
1.00000085568
1.00000041856
1.00001980843
1.00001937147
1.00001897254
1.00001857676
1.00001818601
1.00001779716
1.00001740953
1.00001702232
1.00001663504
1.00001624736
1.00001585907
1.00001547004
1.00001508019
1.00001468951
1.00001429801
1.0000139057
1.00001351264
1.00001311887
1.00001272444
1.00001232939
1.0000119338
1.0000115377
1.00001114115
1.00001074421
1.00001034692
1.00000994933
1.00000955151
1.0000091535
1.00000875537
1.00000835717
1.00000795896
1.00000756081
1.00000716279
1.00000676497
1.00000636742
1.00000597021
1.0000055734
1.00000517706
1.0000047812
1.00000438585
1.00000399097
1.00000359645
1.0000032021
1.00000280762
1.00000241253
1.00000201601
1.00000161736
1.00000121343
1.00000080569
1.00000036033
1.00001985418
1.00001941098
1.00001900912
1.00001860892
1.000018214
1.00001782106
1.00001742973
1.0000170392
1.00001664903
1.00001625886
1.00001586844
1.00001547761
1.00001508626
1.00001469434
1.0000143018
1.00001390865
1.00001351489
1.00001312055
1.00001272565
1.00001233023
1.00001193433
1.00001153797
1.0000111412
1.00001074407
1.0000103466
1.00000994885
1.00000955085
1.00000915266
1.00000875432
1.00000835586
1.00000795735
1.00000755884
1.00000716036
1.00000676198
1.00000636374
1.00000596568
1.00000556783
1.00000517021
1.00000477281
1.0000043756
1.00000397849
1.00000358135
1.00000318394
1.00000278593
1.00000238687
1.00000198597
1.00000158278
1.00000117414
1.00000076296
1.00000031211
1.00001989267
1.00001944504
1.00001904114
1.00001863763
1.00001823944
1.00001784322
1.0000174488
1.00001705544
1.00001666273
1.00001627032
1.00001587796
1.00001548545
1.00001509268
1.00001469954
1.00001430598
1.00001391197
1.0000135175
1.00001312256
1.00001272716
1.00001233132
1.00001193506
1.0000115384
1.00001114137
1.000010744
1.00001034632
1.00000994836
1.00000955015
1.00000915173
1.00000875312
1.00000835438
1.00000795552
1.00000755659
1.00000715763
1.00000675865
1.00000635969
1.00000596076
1.00000556187
1.00000516301
1.00000476414
1.00000436519
1.00000396605
1.00000356656
1.00000316648
1.00000276547
1.00000236313
1.00000195873
1.00000155204
1.00000113992
1.00000072636
1.00000027185
1.00001992524
1.00001947444
1.00001906912
1.00001866312
1.00001826239
1.00001786352
1.00001746655
1.00001707078
1.00001667588
1.00001628149
1.00001588737
1.00001549333
1.00001509921
1.00001470492
1.00001431038
1.00001391553
1.00001352034
1.00001312479
1.00001272887
1.00001233259
1.00001193595
1.00001153897
1.00001114165
1.00001074401
1.00001034608
1.00000994787
1.00000954941
1.00000915073
1.00000875183
1.00000835276
1.00000795353
1.00000755417
1.00000715468
1.0000067551
1.00000635541
1.00000595563
1.00000555573
1.00000515569
1.00000475544
1.0000043549
1.00000395394
1.00000355238
1.00000315
1.00000274647
1.00000234144
1.00000193425
1.00000152486
1.00000111017
1.00000069497
1.00000023804
1.00001995291
1.00001949983
1.00001909353
1.00001868565
1.00001828294
1.00001788194
1.00001748286
1.00001708508
1.00001668828
1.00001629216
1.00001589648
1.00001550104
1.0000151057
1.00001471033
1.00001431485
1.00001391919
1.0000135233
1.00001312715
1.00001273071
1.00001233398
1.00001193695
1.00001153962
1.00001114199
1.00001074406
1.00001034586
1.00000994739
1.00000954866
1.00000914969
1.00000875049
1.00000835107
1.00000795145
1.00000755164
1.00000715163
1.00000675144
1.00000635105
1.00000595044
1.00000554959
1.00000514844
1.00000474693
1.00000434495
1.00000394237
1.00000353902
1.00000313467
1.00000272904
1.00000232181
1.00000191241
1.00000150094
1.00000108435
1.00000066804
1.00000020952
1.00001997645
1.00001952174
1.00001911477
1.00001870547
1.00001830121
1.0000178985
1.0000174977
1.00001709822
1.00001669981
1.00001630219
1.00001590513
1.00001550845
1.00001511198
1.00001471563
1.00001431927
1.00001392285
1.00001352629
1.00001312956
1.00001273261
1.00001233544
1.00001193801
1.00001154033
1.00001114238
1.00001074416
1.00001034567
1.00000994692
1.00000954791
1.00000914864
1.00000874912
1.00000834935
1.00000794934
1.00000754908
1.00000714856
1.00000674778
1.00000634671
1.00000594533
1.00000554359
1.00000514143
1.00000473877
1.00000433551
1.00000393152
1.00000352661
1.0000031206
1.00000271322
1.00000230422
1.00000189306
1.00000147999
1.000001062
1.00000064494
1.00000018542
1.00001999648
1.0000195406
1.00001913318
1.0000187228
1.00001831733
1.00001791326
1.00001751105
1.00001711016
1.00001671039
1.00001631147
1.00001591321
1.00001551542
1.00001511796
1.0000147207
1.00001432355
1.00001392641
1.00001352923
1.00001313194
1.00001273451
1.0000123369
1.00001193909
1.00001154106
1.00001114279
1.00001074427
1.0000103455
1.00000994647
1.00000954717
1.00000914761
1.00000874777
1.00000834765
1.00000794725
1.00000754656
1.00000714555
1.00000674421
1.00000634251
1.0000059404
1.00000553785
1.00000513478
1.0000047311
1.00000432671
1.00000392148
1.00000351526
1.00000310785
1.00000269903
1.00000228858
1.00000187605
1.00000146176
1.00000104273
1.00000062517
1.00000016505
1.00002001346
1.00001955676
1.00001914905
1.00001873786
1.00001833144
1.00001792629
1.00001752293
1.00001712087
1.00001671995
1.00001631992
1.00001592062
1.00001552187
1.00001512352
1.00001472546
1.00001432759
1.0000139298
1.00001353204
1.00001313424
1.00001273635
1.00001233834
1.00001194016
1.00001154179
1.00001114321
1.00001074441
1.00001034535
1.00000994605
1.00000954647
1.00000914661
1.00000874647
1.00000834601
1.00000794524
1.00000754414
1.00000714267
1.00000674081
1.00000633852
1.00000593576
1.00000553248
1.00000512859
1.00000472401
1.00000431864
1.00000391236
1.00000350501
1.00000309644
1.00000268643
1.00000227483
1.00000186121
1.00000144598
1.00000102619
1.00000060832
1.00000014788
1.00002002779
1.00001957051
1.00001916262
1.00001875081
1.00001834366
1.00001793764
1.00001753335
1.00001713034
1.00001672845
1.0000163275
1.00001592731
1.00001552772
1.00001512861
1.00001472984
1.00001433132
1.00001393296
1.00001353467
1.0000131364
1.0000127381
1.0000123397
1.00001194118
1.0000115425
1.00001114363
1.00001074454
1.00001034522
1.00000994565
1.00000954581
1.00000914568
1.00000874524
1.00000834447
1.00000794336
1.00000754187
1.00000713997
1.00000673764
1.00000633483
1.00000593148
1.00000552754
1.00000512294
1.00000471758
1.00000431137
1.00000390419
1.0000034959
1.00000308637
1.0000026754
1.00000226287
1.00000184841
1.00000143246
1.00000101212
1.00000059405
1.00000013348
1.00002003977
1.0000195821
1.0000191741
1.00001876182
1.00001835411
1.0000179474
1.00001754237
1.00001713857
1.0000167359
1.00001633417
1.00001593323
1.00001553293
1.00001513315
1.00001473377
1.00001433469
1.00001393582
1.00001353707
1.00001313838
1.0000127397
1.00001234096
1.00001194212
1.00001154315
1.00001114402
1.00001074468
1.00001034511
1.0000099453
1.00000954521
1.00000914482
1.00000874411
1.00000834306
1.00000794163
1.00000753979
1.00000713752
1.00000673476
1.00000633148
1.00000592762
1.00000552312
1.0000051179
1.00000471187
1.00000430495
1.00000389702
1.00000348795
1.00000307763
1.00000266588
1.00000225262
1.00000183749
1.00000142101
1.00000100026
1.00000058209
1.0000001215
1.00002004964
1.0000195917
1.00001918365
1.00001877103
1.00001836288
1.00001795564
1.00001755001
1.00001714558
1.00001674227
1.0000163399
1.00001593834
1.00001553745
1.00001513711
1.00001473722
1.00001433766
1.00001393834
1.00001353919
1.00001314014
1.00001274113
1.00001234209
1.00001194297
1.00001154375
1.00001114437
1.0000107448
1.00001034502
1.00000994498
1.00000954467
1.00000914406
1.00000874311
1.00000834179
1.00000794009
1.00000753795
1.00000713534
1.00000673222
1.00000632854
1.00000592424
1.00000551925
1.00000511351
1.00000470692
1.0000042994
1.00000389085
1.00000348116
1.0000030702
1.00000265783
1.000002244
1.00000182836
1.00000141146
1.00000099043
1.00000057221
1.00000011167
1.00002005759
1.00001959949
1.00001919141
1.00001877853
1.00001837005
1.0000179624
1.00001755631
1.00001715139
1.00001674756
1.00001634468
1.00001594262
1.00001554125
1.00001514046
1.00001474013
1.00001434017
1.00001394049
1.00001354101
1.00001314165
1.00001274235
1.00001234306
1.00001194371
1.00001154426
1.00001114468
1.00001074492
1.00001034494
1.00000994472
1.00000954421
1.0000091434
1.00000874224
1.00000834071
1.00000793877
1.00000753637
1.00000713348
1.00000673005
1.00000632603
1.00000592136
1.00000551598
1.0000051098
1.00000470276
1.00000429477
1.00000388572
1.00000347551
1.00000306405
1.00000265121
1.00000223693
1.0000018209
1.0000014037
1.00000098246
1.00000056422
1.00000010378
1.00002006378
1.00001960557
1.00001919749
1.00001878443
1.00001837571
1.00001796775
1.00001756131
1.00001715601
1.00001675179
1.00001634851
1.00001594606
1.00001554431
1.00001514316
1.00001474249
1.00001434222
1.00001394225
1.00001354249
1.00001314289
1.00001274336
1.00001234386
1.00001194431
1.00001154469
1.00001114494
1.00001074501
1.00001034488
1.0000099445
1.00000954384
1.00000914286
1.00000874154
1.00000833982
1.00000793768
1.00000753508
1.00000713196
1.00000672828
1.00000632399
1.00000591903
1.00000551333
1.00000510682
1.00000469942
1.00000429104
1.00000388161
1.00000347101
1.00000305917
1.00000264596
1.00000223135
1.00000181503
1.00000139762
1.00000097624
1.000000558
1.00000009766
1.00002006833
1.00001961006
1.00001920198
1.0000187888
1.00001837991
1.00001797173
1.00001756503
1.00001715946
1.00001675495
1.00001635139
1.00001594865
1.00001554662
1.0000151452
1.00001474428
1.00001434377
1.00001394358
1.00001354362
1.00001314383
1.00001274413
1.00001234447
1.00001194478
1.00001154502
1.00001114513
1.00001074509
1.00001034483
1.00000994433
1.00000954355
1.00000914245
1.000008741
1.00000833914
1.00000793686
1.00000753409
1.0000071308
1.00000672694
1.00000632245
1.00000591726
1.00000551132
1.00000510456
1.00000469689
1.00000428825
1.00000387853
1.00000346765
1.00000305553
1.00000264205
1.0000022272
1.00000181069
1.00000139312
1.00000097165
1.00000055343
1.00000009317
1.00002007132
1.00001961301
1.00001920494
1.00001879168
1.00001838268
1.00001797436
1.0000175675
1.00001716175
1.00001675706
1.0000163533
1.00001595037
1.00001554816
1.00001514656
1.00001474548
1.00001434481
1.00001394447
1.00001354438
1.00001314446
1.00001274465
1.00001234488
1.00001194509
1.00001154524
1.00001114527
1.00001074514
1.0000103448
1.00000994422
1.00000954336
1.00000914217
1.00000874063
1.00000833869
1.0000079363
1.00000753343
1.00000713002
1.00000672603
1.0000063214
1.00000591608
1.00000550998
1.00000510305
1.00000469521
1.00000428638
1.00000387647
1.00000346541
1.00000305311
1.00000263947
1.00000222446
1.00000180782
1.00000139016
1.00000096863
1.00000055042
1.00000009024
1.0000200728
1.00001961448
1.00001920641
1.00001879311
1.00001838406
1.00001797567
1.00001756873
1.00001716289
1.00001675811
1.00001635426
1.00001595124
1.00001554894
1.00001514725
1.00001474608
1.00001434533
1.00001394492
1.00001354476
1.00001314478
1.00001274491
1.00001234509
1.00001194525
1.00001154535
1.00001114534
1.00001074516
1.00001034478
1.00000994416
1.00000954326
1.00000914203
1.00000874045
1.00000833846
1.00000793602
1.00000753309
1.00000712963
1.00000672558
1.00000632088
1.00000591548
1.00000550931
1.00000510229
1.00000469437
1.00000428544
1.00000387545
1.00000346429
1.0000030519
1.00000263818
1.0000022231
1.00000180639
1.00000138869
1.00000096713
1.00000054893
1.00000008878
1.0000200728
1.00001961448
1.00001920641
1.00001879311
1.00001838406
1.00001797567
1.00001756873
1.00001716289
1.00001675811
1.00001635426
1.00001595124
1.00001554894
1.00001514725
1.00001474608
1.00001434533
1.00001394492
1.00001354476
1.00001314478
1.00001274491
1.00001234509
1.00001194525
1.00001154535
1.00001114534
1.00001074516
1.00001034478
1.00000994416
1.00000954326
1.00000914203
1.00000874045
1.00000833846
1.00000793602
1.00000753309
1.00000712963
1.00000672558
1.00000632088
1.00000591548
1.00000550931
1.00000510229
1.00000469437
1.00000428544
1.00000387545
1.00000346429
1.0000030519
1.00000263818
1.0000022231
1.00000180639
1.00000138869
1.00000096713
1.00000054893
1.00000008878
1.00002007132
1.00001961301
1.00001920494
1.00001879168
1.00001838268
1.00001797436
1.0000175675
1.00001716175
1.00001675706
1.0000163533
1.00001595037
1.00001554816
1.00001514656
1.00001474548
1.00001434481
1.00001394447
1.00001354438
1.00001314446
1.00001274465
1.00001234488
1.00001194509
1.00001154524
1.00001114527
1.00001074514
1.0000103448
1.00000994422
1.00000954336
1.00000914217
1.00000874063
1.00000833869
1.0000079363
1.00000753343
1.00000713002
1.00000672603
1.0000063214
1.00000591608
1.00000550998
1.00000510305
1.00000469521
1.00000428638
1.00000387647
1.00000346541
1.00000305311
1.00000263947
1.00000222446
1.00000180782
1.00000139016
1.00000096863
1.00000055042
1.00000009024
1.00002006833
1.00001961006
1.00001920198
1.0000187888
1.00001837991
1.00001797173
1.00001756503
1.00001715946
1.00001675495
1.00001635139
1.00001594865
1.00001554662
1.0000151452
1.00001474428
1.00001434377
1.00001394358
1.00001354362
1.00001314383
1.00001274413
1.00001234447
1.00001194478
1.00001154502
1.00001114513
1.00001074509
1.00001034483
1.00000994433
1.00000954355
1.00000914245
1.000008741
1.00000833914
1.00000793686
1.00000753409
1.0000071308
1.00000672694
1.00000632245
1.00000591726
1.00000551132
1.00000510456
1.00000469689
1.00000428825
1.00000387853
1.00000346765
1.00000305553
1.00000264205
1.0000022272
1.00000181069
1.00000139312
1.00000097165
1.00000055343
1.00000009317
1.00002006378
1.00001960557
1.00001919749
1.00001878443
1.00001837571
1.00001796775
1.00001756131
1.00001715601
1.00001675179
1.00001634851
1.00001594606
1.00001554431
1.00001514316
1.00001474249
1.00001434222
1.00001394225
1.00001354249
1.00001314289
1.00001274336
1.00001234386
1.00001194431
1.00001154469
1.00001114494
1.00001074501
1.00001034488
1.0000099445
1.00000954384
1.00000914286
1.00000874154
1.00000833982
1.00000793768
1.00000753508
1.00000713196
1.00000672828
1.00000632399
1.00000591903
1.00000551333
1.00000510682
1.00000469942
1.00000429104
1.00000388161
1.00000347101
1.00000305917
1.00000264596
1.00000223135
1.00000181503
1.00000139762
1.00000097624
1.000000558
1.00000009766
1.00002005759
1.00001959949
1.00001919141
1.00001877853
1.00001837005
1.0000179624
1.00001755631
1.00001715139
1.00001674756
1.00001634468
1.00001594262
1.00001554125
1.00001514046
1.00001474013
1.00001434017
1.00001394049
1.00001354101
1.00001314165
1.00001274235
1.00001234306
1.00001194371
1.00001154426
1.00001114468
1.00001074492
1.00001034494
1.00000994472
1.00000954421
1.0000091434
1.00000874224
1.00000834071
1.00000793877
1.00000753637
1.00000713348
1.00000673005
1.00000632603
1.00000592136
1.00000551598
1.0000051098
1.00000470276
1.00000429477
1.00000388572
1.00000347551
1.00000306405
1.00000265121
1.00000223693
1.0000018209
1.0000014037
1.00000098246
1.00000056422
1.00000010378
1.00002004964
1.0000195917
1.00001918365
1.00001877103
1.00001836288
1.00001795564
1.00001755001
1.00001714558
1.00001674227
1.0000163399
1.00001593834
1.00001553745
1.00001513711
1.00001473722
1.00001433766
1.00001393834
1.00001353919
1.00001314014
1.00001274113
1.00001234209
1.00001194297
1.00001154375
1.00001114437
1.0000107448
1.00001034502
1.00000994498
1.00000954467
1.00000914406
1.00000874311
1.00000834179
1.00000794009
1.00000753795
1.00000713534
1.00000673222
1.00000632854
1.00000592424
1.00000551925
1.00000511351
1.00000470692
1.0000042994
1.00000389085
1.00000348116
1.0000030702
1.00000265783
1.000002244
1.00000182836
1.00000141146
1.00000099043
1.00000057221
1.00000011167
1.00002003977
1.0000195821
1.0000191741
1.00001876182
1.00001835411
1.0000179474
1.00001754237
1.00001713857
1.0000167359
1.00001633417
1.00001593323
1.00001553293
1.00001513315
1.00001473377
1.00001433469
1.00001393582
1.00001353707
1.00001313838
1.0000127397
1.00001234096
1.00001194212
1.00001154315
1.00001114402
1.00001074468
1.00001034511
1.0000099453
1.00000954521
1.00000914482
1.00000874411
1.00000834306
1.00000794163
1.00000753979
1.00000713752
1.00000673476
1.00000633148
1.00000592762
1.00000552312
1.0000051179
1.00000471187
1.00000430495
1.00000389702
1.00000348795
1.00000307763
1.00000266588
1.00000225262
1.00000183749
1.00000142101
1.00000100026
1.00000058209
1.0000001215
1.00002002779
1.00001957051
1.00001916262
1.00001875081
1.00001834366
1.00001793764
1.00001753335
1.00001713034
1.00001672845
1.0000163275
1.00001592731
1.00001552772
1.00001512861
1.00001472984
1.00001433132
1.00001393296
1.00001353467
1.0000131364
1.0000127381
1.0000123397
1.00001194118
1.0000115425
1.00001114363
1.00001074454
1.00001034522
1.00000994565
1.00000954581
1.00000914568
1.00000874524
1.00000834447
1.00000794336
1.00000754187
1.00000713997
1.00000673764
1.00000633483
1.00000593148
1.00000552754
1.00000512294
1.00000471758
1.00000431137
1.00000390419
1.0000034959
1.00000308637
1.0000026754
1.00000226287
1.00000184841
1.00000143246
1.00000101212
1.00000059405
1.00000013348
1.00002001346
1.00001955676
1.00001914905
1.00001873786
1.00001833144
1.00001792629
1.00001752293
1.00001712087
1.00001671995
1.00001631992
1.00001592062
1.00001552187
1.00001512352
1.00001472546
1.00001432759
1.0000139298
1.00001353204
1.00001313424
1.00001273635
1.00001233834
1.00001194016
1.00001154179
1.00001114321
1.00001074441
1.00001034535
1.00000994605
1.00000954647
1.00000914661
1.00000874647
1.00000834601
1.00000794524
1.00000754414
1.00000714267
1.00000674081
1.00000633852
1.00000593576
1.00000553248
1.00000512859
1.00000472401
1.00000431864
1.00000391236
1.00000350501
1.00000309644
1.00000268643
1.00000227483
1.00000186121
1.00000144598
1.00000102619
1.00000060832
1.00000014788
1.00001999648
1.0000195406
1.00001913318
1.0000187228
1.00001831733
1.00001791326
1.00001751105
1.00001711016
1.00001671039
1.00001631147
1.00001591321
1.00001551542
1.00001511796
1.0000147207
1.00001432355
1.00001392641
1.00001352923
1.00001313194
1.00001273451
1.0000123369
1.00001193909
1.00001154106
1.00001114279
1.00001074427
1.0000103455
1.00000994647
1.00000954717
1.00000914761
1.00000874777
1.00000834765
1.00000794725
1.00000754656
1.00000714555
1.00000674421
1.00000634251
1.0000059404
1.00000553785
1.00000513478
1.0000047311
1.00000432671
1.00000392148
1.00000351526
1.00000310785
1.00000269903
1.00000228858
1.00000187605
1.00000146176
1.00000104273
1.00000062517
1.00000016505
1.00001997645
1.00001952174
1.00001911477
1.00001870547
1.00001830121
1.0000178985
1.0000174977
1.00001709822
1.00001669981
1.00001630219
1.00001590513
1.00001550845
1.00001511198
1.00001471563
1.00001431927
1.00001392285
1.00001352629
1.00001312956
1.00001273261
1.00001233544
1.00001193801
1.00001154033
1.00001114238
1.00001074416
1.00001034567
1.00000994692
1.00000954791
1.00000914864
1.00000874912
1.00000834935
1.00000794934
1.00000754908
1.00000714856
1.00000674778
1.00000634671
1.00000594533
1.00000554359
1.00000514143
1.00000473877
1.00000433551
1.00000393152
1.00000352661
1.0000031206
1.00000271322
1.00000230422
1.00000189306
1.00000147999
1.000001062
1.00000064494
1.00000018542
1.00001995291
1.00001949983
1.00001909353
1.00001868565
1.00001828294
1.00001788194
1.00001748286
1.00001708508
1.00001668828
1.00001629216
1.00001589648
1.00001550104
1.0000151057
1.00001471033
1.00001431485
1.00001391919
1.0000135233
1.00001312715
1.00001273071
1.00001233398
1.00001193695
1.00001153962
1.00001114199
1.00001074406
1.00001034586
1.00000994739
1.00000954866
1.00000914969
1.00000875049
1.00000835107
1.00000795145
1.00000755164
1.00000715163
1.00000675144
1.00000635105
1.00000595044
1.00000554959
1.00000514844
1.00000474693
1.00000434495
1.00000394237
1.00000353902
1.00000313467
1.00000272904
1.00000232181
1.00000191241
1.00000150094
1.00000108435
1.00000066804
1.00000020952
1.00001992524
1.00001947444
1.00001906912
1.00001866312
1.00001826239
1.00001786352
1.00001746655
1.00001707078
1.00001667588
1.00001628149
1.00001588737
1.00001549333
1.00001509921
1.00001470492
1.00001431038
1.00001391553
1.00001352034
1.00001312479
1.00001272887
1.00001233259
1.00001193595
1.00001153897
1.00001114165
1.00001074401
1.00001034608
1.00000994787
1.00000954941
1.00000915073
1.00000875183
1.00000835276
1.00000795353
1.00000755417
1.00000715468
1.0000067551
1.00000635541
1.00000595563
1.00000555573
1.00000515569
1.00000475544
1.0000043549
1.00000395394
1.00000355238
1.00000315
1.00000274647
1.00000234144
1.00000193425
1.00000152486
1.00000111017
1.00000069497
1.00000023804
1.00001989267
1.00001944504
1.00001904114
1.00001863763
1.00001823944
1.00001784322
1.0000174488
1.00001705544
1.00001666273
1.00001627032
1.00001587796
1.00001548545
1.00001509268
1.00001469954
1.00001430598
1.00001391197
1.0000135175
1.00001312256
1.00001272716
1.00001233132
1.00001193506
1.0000115384
1.00001114137
1.000010744
1.00001034632
1.00000994836
1.00000955015
1.00000915173
1.00000875312
1.00000835438
1.00000795552
1.00000755659
1.00000715763
1.00000675865
1.00000635969
1.00000596076
1.00000556187
1.00000516301
1.00000476414
1.00000436519
1.00000396605
1.00000356656
1.00000316648
1.00000276547
1.00000236313
1.00000195873
1.00000155204
1.00000113992
1.00000072636
1.00000027185
1.00001985418
1.00001941098
1.00001900912
1.00001860892
1.000018214
1.00001782106
1.00001742973
1.0000170392
1.00001664903
1.00001625886
1.00001586844
1.00001547761
1.00001508626
1.00001469434
1.0000143018
1.00001390865
1.00001351489
1.00001312055
1.00001272565
1.00001233023
1.00001193433
1.00001153797
1.0000111412
1.00001074407
1.0000103466
1.00000994885
1.00000955085
1.00000915266
1.00000875432
1.00000835586
1.00000795735
1.00000755884
1.00000716036
1.00000676198
1.00000636374
1.00000596568
1.00000556783
1.00000517021
1.00000477281
1.0000043756
1.00000397849
1.00000358135
1.00000318394
1.00000278593
1.00000238687
1.00000198597
1.00000158278
1.00000117414
1.00000076296
1.00000031211
1.00001980843
1.00001937147
1.00001897254
1.00001857676
1.00001818601
1.00001779716
1.00001740953
1.00001702232
1.00001663504
1.00001624736
1.00001585907
1.00001547004
1.00001508019
1.00001468951
1.00001429801
1.0000139057
1.00001351264
1.00001311887
1.00001272444
1.00001232939
1.0000119338
1.0000115377
1.00001114115
1.00001074421
1.00001034692
1.00000994933
1.00000955151
1.0000091535
1.00000875537
1.00000835717
1.00000795896
1.00000756081
1.00000716279
1.00000676497
1.00000636742
1.00000597021
1.0000055734
1.00000517706
1.0000047812
1.00000438585
1.00000399097
1.00000359645
1.0000032021
1.00000280762
1.00000241253
1.00000201601
1.00000161736
1.00000121343
1.00000080569
1.00000036033
1.00001975359
1.00001932555
1.00001893084
1.00001854096
1.00001815556
1.00001777172
1.00001738851
1.00001700513
1.00001662112
1.00001623618
1.00001585017
1.00001546301
1.00001507471
1.00001468528
1.00001429478
1.00001390329
1.00001351088
1.00001311762
1.00001272359
1.00001232888
1.00001193353
1.00001153764
1.00001114126
1.00001074445
1.00001034728
1.00000994981
1.00000955211
1.00000915423
1.00000875625
1.00000835823
1.00000796026
1.00000756242
1.00000716479
1.00000676746
1.00000637055
1.00000597414
1.00000557835
1.00000518327
1.000004789
1.0000043956
1.00000400309
1.00000361146
1.00000322058
1.00000283019
1.00000243986
1.00000204877
1.00000165598
1.00000125844