/*--------------------------------*- C++ -*----------------------------------*\
| =========                 |                                                 |
| \\      /  F ield         | OpenFOAM: The Open Source CFD Toolbox           |
|  \\    /   O peration     | Version:  2.4.0                                 |
|   \\  /    A nd           | Web:      www.OpenFOAM.org                      |
|    \\/     M anipulation  |                                                 |
\*---------------------------------------------------------------------------*/
FoamFile
{
    version     2.0;
    format      ascii;
    class       volVectorField;
    location    "100";
    object      U;
}
// * * * * * * * * * * * * * * * * * * * * * * * * * * * * * * * * * * * * * //

dimensions      [0 1 -1 0 0 0 0];

internalField   nonuniform List<vector> 
2500
(
(1.63264019385e-05 2.97681228026e-07 0)
(1.60222236304e-05 3.98566274066e-08 0)
(1.60497773516e-05 -3.75704204273e-08 0)
(1.61493048903e-05 -4.42038955326e-08 0)
(1.62591181647e-05 -3.61033608527e-08 0)
(1.63549773191e-05 -2.74739894146e-08 0)
(1.64355143007e-05 -2.10104874312e-08 0)
(1.65027640834e-05 -1.64952850868e-08 0)
(1.65593941951e-05 -1.32667978361e-08 0)
(1.66074665272e-05 -1.08350738607e-08 0)
(1.66485262415e-05 -8.90763163817e-09 0)
(1.66837301322e-05 -7.32193216343e-09 0)
(1.67139773921e-05 -5.98585795349e-09 0)
(1.6739987736e-05 -4.84344273387e-09 0)
(1.6762349901e-05 -3.85727398563e-09 0)
(1.67815513465e-05 -3.0000472104e-09 0)
(1.67979979482e-05 -2.25048022365e-09 0)
(1.68120278402e-05 -1.59123071993e-09 0)
(1.68239216588e-05 -1.00772546769e-09 0)
(1.68339103347e-05 -4.87420980847e-10 0)
(1.6842181089e-05 -1.92903767184e-11 0)
(1.68488820355e-05 4.0656286676e-10 0)
(1.68541256543e-05 7.99210036417e-10 0)
(1.68579913184e-05 1.16715247185e-09 0)
(1.68605269953e-05 1.5185411087e-09 0)
(1.68617502028e-05 1.86137793286e-09 0)
(1.68616482595e-05 2.20370737739e-09 0)
(1.68601778386e-05 2.55380857679e-09 0)
(1.68572638026e-05 2.92039782184e-09 0)
(1.68527972599e-05 3.3128515642e-09 0)
(1.68466327476e-05 3.74146293625e-09 0)
(1.68385843967e-05 4.21774673574e-09 0)
(1.68284208757e-05 4.75481728648e-09 0)
(1.68158588213e-05 5.36786710036e-09 0)
(1.68005543497e-05 6.07480710132e-09 0)
(1.67820920481e-05 6.89716436534e-09 0)
(1.67599705057e-05 7.86146022196e-09 0)
(1.67335828216e-05 9.00155855691e-09 0)
(1.67021891553e-05 1.0363148947e-08 0)
(1.66648758751e-05 1.20129670289e-08 0)
(1.66204898932e-05 1.40583950157e-08 0)
(1.65675306971e-05 1.6687643775e-08 0)
(1.65039629857e-05 2.02462692258e-08 0)
(1.642696426e-05 2.53515972956e-08 0)
(1.63325838687e-05 3.29811297581e-08 0)
(1.62163865166e-05 4.41131383359e-08 0)
(1.6075357279e-05 5.76826721431e-08 0)
(1.59252727737e-05 6.2421360553e-08 0)
(1.58174760645e-05 5.41415793522e-09 0)
(1.59954725323e-05 -2.25085634609e-07 0)
(5.83282926649e-05 8.17297286042e-07 0)
(5.80153885213e-05 1.5196640241e-07 0)
(5.8049231352e-05 -1.49685297947e-07 0)
(5.82283350928e-05 -2.2340605991e-07 0)
(5.84674576686e-05 -2.20211398521e-07 0)
(5.87112448561e-05 -1.95815656908e-07 0)
(5.89392331544e-05 -1.68827445554e-07 0)
(5.9143914777e-05 -1.44370563859e-07 0)
(5.93243903736e-05 -1.23292646775e-07 0)
(5.94821230531e-05 -1.05296545194e-07 0)
(5.96193876079e-05 -8.98954489469e-08 0)
(5.97385544179e-05 -7.66519879974e-08 0)
(5.98418384418e-05 -6.52104533267e-08 0)
(5.99312153919e-05 -5.52835901609e-08 0)
(6.00084107459e-05 -4.66356091755e-08 0)
(6.0074913796e-05 -3.90694128921e-08 0)
(6.01319996269e-05 -3.24176618832e-08 0)
(6.01807516955e-05 -2.6536362897e-08 0)
(6.02220824287e-05 -2.13000190907e-08 0)
(6.02567509755e-05 -1.65977944865e-08 0)
(6.02853779851e-05 -1.23303815648e-08 0)
(6.03084575473e-05 -8.40738085159e-09 0)
(6.03263665107e-05 -4.74505329269e-09 0)
(6.03393713858e-05 -1.26434607066e-09 0)
(6.03476330038e-05 2.1108966069e-09 0)
(6.03512090431e-05 5.45561416538e-09 0)
(6.03500544764e-05 8.84516733545e-09 0)
(6.03440199225e-05 1.23570026546e-08 0)
(6.03328478195e-05 1.60724121386e-08 0)
(6.03161662549e-05 2.00784651717e-08 0)
(6.02934802018e-05 2.44702019268e-08 0)
(6.02641598114e-05 2.93531996581e-08 0)
(6.0227425287e-05 3.48466530202e-08 0)
(6.0182327736e-05 4.10871519824e-08 0)
(6.01277252407e-05 4.82334166956e-08 0)
(6.00622532419e-05 5.64723669896e-08 0)
(5.99842882454e-05 6.60271325389e-08 0)
(5.98919040401e-05 7.71680457407e-08 0)
(5.97828204319e-05 9.02284862384e-08 0)
(5.96543476903e-05 1.05628720032e-07 0)
(5.950333738e-05 1.23912031647e-07 0)
(5.93261765821e-05 1.4579386922e-07 0)
(5.91189064806e-05 1.72200892506e-07 0)
(5.88777394046e-05 2.04175967461e-07 0)
(5.86003642057e-05 2.42198819452e-07 0)
(5.82898744467e-05 2.8351907057e-07 0)
(5.79613530927e-05 3.13441170413e-07 0)
(5.76640856358e-05 2.81220707983e-07 0)
(5.74833204708e-05 3.72817370726e-08 0)
(5.76206185003e-05 -5.69624367995e-07 0)
(9.87655131101e-05 1.21636047964e-06 0)
(9.85012543716e-05 2.75053950926e-07 0)
(9.84910986235e-05 -2.56937905065e-07 0)
(9.86420766533e-05 -4.51938486902e-07 0)
(9.88905060571e-05 -4.93901446644e-07 0)
(9.91756674552e-05 -4.72657740156e-07 0)
(9.94642486192e-05 -4.29183264729e-07 0)
(9.97382426213e-05 -3.80516475597e-07 0)
(9.99897720258e-05 -3.33406543547e-07 0)
(0.000100216218913 -2.90226685495e-07 0)
(0.000100417698037 -2.51571917617e-07 0)
(0.000100595590366 -2.1733374458e-07 0)
(0.000100751796501 -1.87145850316e-07 0)
(0.000100888350839 -1.60565988488e-07 0)
(0.000101007232266 -1.37149746419e-07 0)
(0.000101110274348 -1.16478939323e-07 0)
(0.000101199127011 -9.81706777064e-08 0)
(0.000101275244164 -8.18780458041e-08 0)
(0.000101339884106 -6.72871972281e-08 0)
(0.000101394115761 -5.4113043448e-08 0)
(0.00010143882701 -4.20945338271e-08 0)
(0.000101474733131 -3.09899671691e-08 0)
(0.000101502384267 -2.05724981327e-08 0)
(0.000101522171333 -1.06258683052e-08 0)
(0.000101534330033 -9.40315761623e-10 0)
(0.0001015389428 8.6914130905e-09 0)
(0.000101535938513 1.84780463972e-08 0)
(0.000101525089883 2.86338791897e-08 0)
(0.000101506008383 3.93830944912e-08 0)
(0.000101478136578 5.09644548215e-08 0)
(0.000101440737734 6.36365164328e-08 0)
(0.00010139288256 7.76835372317e-08 0)
(0.000101333433018 9.34222683593e-08 0)
(0.00010126102328 1.11209815155e-07 0)
(0.000101174038275 1.31452726355e-07 0)
(0.000101070590923 1.54617355189e-07 0)
(0.0001009485006 1.81241245041e-07 0)
(0.000100805278206 2.11944548977e-07 0)
(0.000100638128807 2.47438629804e-07 0)
(0.000100443994633 2.88524214987e-07 0)
(0.000100219683565 3.36058796176e-07 0)
(9.99621781324e-05 3.90840195396e-07 0)
(9.96692960401e-05 4.53265612945e-07 0)
(9.93410807964e-05 5.22417233732e-07 0)
(9.89823643753e-05 5.93676765757e-07 0)
(9.86078897006e-05 6.52950940339e-07 0)
(9.82486517151e-05 6.62640218999e-07 0)
(9.79653930203e-05 5.3424711262e-07 0)
(9.78299004201e-05 7.69478971897e-08 0)
(9.79410097652e-05 -8.06896500751e-07 0)
(0.000137359225435 1.5184190306e-06 0)
(0.000137145077794 4.08961647358e-07 0)
(0.000137094375349 -3.04608653152e-07 0)
(0.000137182820138 -6.32341590213e-07 0)
(0.000137379109595 -7.48330140356e-07 0)
(0.000137635662768 -7.56828934023e-07 0)
(0.000137917991958 -7.15486025327e-07 0)
(0.000138202695684 -6.5360564701e-07 0)
(0.000138476069854 -5.85741141657e-07 0)
(0.000138730763784 -5.18827643098e-07 0)
(0.000138963463091 -4.55983835471e-07 0)
(0.000139173230436 -3.98419232009e-07 0)
(0.000139360474264 -3.46398972812e-07 0)
(0.00013952631364 -2.99728901539e-07 0)
(0.000139672200042 -2.58002027957e-07 0)
(0.000139799693829 -2.20723998573e-07 0)
(0.00013991033405 -1.87376552628e-07 0)
(0.000140005563762 -1.57448550696e-07 0)
(0.000140086688335 -1.30449823883e-07 0)
(0.000140154853207 -1.05915834984e-07 0)
(0.000140211032912 -8.34074264758e-08 0)
(0.000140256026385 -6.25079576159e-08 0)
(0.000140290455487 -4.28190686134e-08 0)
(0.000140314764827 -2.39557262653e-08 0)
(0.000140329221693 -5.540867108e-09 0)
(0.000140333915321 1.2800217575e-08 0)
(0.000140328755041 3.14457347099e-08 0)
(0.00014031346702 5.07835037718e-08 0)
(0.000140287589463 7.12174004359e-08 0)
(0.000140250466315 9.3174200972e-08 0)
(0.000140201239625 1.17110882848e-07 0)
(0.000140138841047 1.43522395311e-07 0)
(0.000140061983311 1.72949787031e-07 0)
(0.000139969153169 2.05988358552e-07 0)
(0.000139858608418 2.43295051754e-07 0)
(0.000139728383445 2.85593422235e-07 0)
(0.000139576310924 3.33672861772e-07 0)
(0.000139400072733 3.88375420365e-07 0)
(0.000139197302558 4.50556919794e-07 0)
(0.000138965779007 5.20995440669e-07 0)
(0.000138703774524 6.00191607497e-07 0)
(0.000138410672047 6.87946072457e-07 0)
(0.000138088013617 7.82471850916e-07 0)
(0.000137741256759 8.78558039178e-07 0)
(0.000137382383037 9.63761082627e-07 0)
(0.000137033800922 1.01094857672e-06 0)
(0.000136730986542 9.63589716232e-07 0)
(0.000136525320237 7.14317445199e-07 0)
(0.000136457492077 7.69458580042e-08 0)
(0.000136554788227 -9.8321394374e-07 0)
(0.000173918397013 1.73740918874e-06 0)
(0.000173748913868 5.4070446445e-07 0)
(0.000173672325182 -2.99992527915e-07 0)
(0.000173701528956 -7.47490701655e-07 0)
(0.000173830154255 -9.48516360359e-07 0)
(0.000174028461365 -1.00595274438e-06 0)
(0.000174268123936 -9.8535667167e-07 0)
(0.000174525987643 -9.25048693872e-07 0)
(0.000174785825185 -8.46883497803e-07 0)
(0.000175037083388 -7.62954710014e-07 0)
(0.000175273462186 -6.79770051207e-07 0)
(0.000175491578599 -6.00658961697e-07 0)
(0.000175689967972 -5.27157577613e-07 0)
(0.000175868373605 -4.59794778387e-07 0)
(0.000176027265607 -3.98539870688e-07 0)
(0.000176167520917 -3.43057852292e-07 0)
(0.000176290213528 -2.92855199522e-07 0)
(0.000176396477981 -2.47362700463e-07 0)
(0.000176487421141 -2.05981748452e-07 0)
(0.000176564065509 -1.68109205288e-07 0)
(0.000176627313015 -1.33149579951e-07 0)
(0.00017667792199 -1.00519641153e-07 0)
(0.000176716492489 -6.96484728053e-08 0)
(0.00017674345677 -3.99747529805e-08 0)
(0.000176759072828 -1.09423088172e-08 0)
(0.000176763419615 1.80054257595e-08 0)
(0.000176756393097 4.74316881783e-08 0)
(0.000176737702729 7.79131626187e-08 0)
(0.000176706868215 1.10047084095e-07 0)
(0.000176663216805 1.44458489099e-07 0)
(0.000176605881762 1.8180734116e-07 0)
(0.000176533803144 2.2279507451e-07 0)
(0.000176445732821 2.68169732567e-07 0)
(0.000176340246742 3.18728247452e-07 0)
(0.000176215769199 3.75313280397e-07 0)
(0.00017607061643 4.38800075731e-07 0)
(0.000175903071016 5.10065286465e-07 0)
(0.000175711504792 5.89923465756e-07 0)
(0.000175494577464 6.79005560032e-07 0)
(0.000175251552244 7.77533070437e-07 0)
(0.000174982788045 8.8490333233e-07 0)
(0.000174690491544 9.98933318116e-07 0)
(0.000174379816726 1.11448299877e-06 0)
(0.000174060399205 1.22098638701e-06 0)
(0.000173748147771 1.29804392364e-06 0)
(0.000173467024152 1.30807391776e-06 0)
(0.000173248128595 1.18417920067e-06 0)
(0.00017312591444 8.17258703832e-07 0)
(0.000173114143575 4.70003277514e-08 0)
(0.000173199752144 -1.109379997e-06 0)
(0.000208367695132 1.89128655887e-06 0)
(0.000208238442554 6.62899398982e-07 0)
(0.000208150524087 -2.56805670665e-07 0)
(0.000208134976688 -7.99628849513e-07 0)
(0.000208201103734 -1.08202493872e-06 0)
(0.000208335106782 -1.1968276403e-06 0)
(0.000208517478446 -1.21007859012e-06 0)
(0.000208728902161 -1.16472451045e-06 0)
(0.000208953644256 -1.0878728328e-06 0)
(0.000209180001102 -9.96135606167e-07 0)
(0.000209399888493 -8.99466733126e-07 0)
(0.000209608071702 -8.03652785751e-07 0)
(0.000209801422235 -7.1190380836e-07 0)
(0.000209978295678 -6.25845981039e-07 0)
(0.000210138054403 -5.46137869104e-07 0)
(0.000210280715969 -4.72851374301e-07 0)
(0.000210406700844 -4.05707060236e-07 0)
(0.000210516654073 -3.44219197129e-07 0)
(0.000210611320444 -2.87784673561e-07 0)
(0.000210691457625 -2.35736798778e-07 0)
(0.000210757775979 -1.8737699735e-07 0)
(0.000210810896958 -1.41992486658e-07 0)
(0.000210851324389 -9.88650005281e-08 0)
(0.000210879424648 -5.72737578057e-08 0)
(0.000210895413007 -1.64947215519e-08 0)
(0.00021089934431 2.42025199598e-08 0)
(0.000210891106877 6.55593390201e-08 0)
(0.000210870419046 1.08333446468e-07 0)
(0.000210836828309 1.53304470093e-07 0)
(0.000210789713491 2.01279103664e-07 0)
(0.000210728291001 2.53095000841e-07 0)
(0.000210651626927 3.09622217707e-07 0)
(0.000210558657715 3.71760338588e-07 0)
(0.000210448223549 4.40428309958e-07 0)
(0.00021031912045 5.16542167956e-07 0)
(0.000210170179841 6.00972806599e-07 0)
(0.000210000388086 6.94470903085e-07 0)
(0.000209809063621 7.97537748179e-07 0)
(0.000209596115707 9.10206794213e-07 0)
(0.000209362416089 1.03167772108e-06 0)
(0.000209110319395 1.1597068019e-06 0)
(0.000208844365448 1.28959830424e-06 0)
(0.000208572160439 1.41254726421e-06 0)
(0.000208305361137 1.51297591188e-06 0)
(0.000208060401437 1.56432574628e-06 0)
(0.000207858382997 1.52296868079e-06 0)
(0.000207722050635 1.31972273145e-06 0)
(0.000207669327547 8.54139926066e-07 0)
(0.000207695711335 -3.01722709175e-09 0)
(0.000207768204789 -1.19838154819e-06 0)
(0.000240693062749 1.99200283973e-06 0)
(0.000240600356346 7.69198226325e-07 0)
(0.000240512097051 -1.91182289227e-07 0)
(0.000240467039064 -8.02628139483e-07 0)
(0.000240482996509 -1.15449984362e-06 0)
(0.000240558206601 -1.32623607251e-06 0)
(0.00024068176473 -1.37961859248e-06 0)
(0.000240839675222 -1.35841067133e-06 0)
(0.000241018636626 -1.29254595291e-06 0)
(0.0002412075171 -1.20186818743e-06 0)
(0.000241397739718 -1.09923866625e-06 0)
(0.000241583082158 -9.92789646265e-07 0)
(0.000241759274819 -8.87506253916e-07 0)
(0.000241923564632 -7.86299290058e-07 0)
(0.000242074324354 -6.9072252467e-07 0)
(0.00024221073085 -6.01447197721e-07 0)
(0.000242332512813 -5.18574243892e-07 0)
(0.00024243975857 -4.41838872622e-07 0)
(0.000242532772384 -3.70744042459e-07 0)
(0.000242611968342 -3.04646947524e-07 0)
(0.000242677792697 -2.42814392029e-07 0)
(0.000242730667469 -1.84457497248e-07 0)
(0.000242770949778 -1.28752635419e-07 0)
(0.000242798902874 -7.48531865957e-08 0)
(0.000242814675915 -2.1895217903e-08 0)
(0.000242818290504 3.10007602669e-08 0)
(0.000242809632715 8.4730391751e-08 0)
(0.000242788450021 1.40207171179e-07 0)
(0.000242754353103 1.98364096548e-07 0)
(0.000242706823156 2.60154050354e-07 0)
(0.000242645225985 3.26547386467e-07 0)
(0.000242568835003 3.9852463421e-07 0)
(0.000242476866269 4.7706128483e-07 0)
(0.000242368530022 5.63100101944e-07 0)
(0.000242243104874 6.57504013007e-07 0)
(0.000242100042935 7.60978901831e-07 0)
(0.00024193911668 8.73949808362e-07 0)
(0.000241760621036 9.96365056895e-07 0)
(0.000241565646116 1.1273890324e-06 0)
(0.000241356435425 1.26492370556e-06 0)
(0.000241136836643 1.40486872935e-06 0)
(0.000240912830274 1.5399900751e-06 0)
(0.00024069306575 1.65821479358e-06 0)
(0.000240489237019 1.74014106323e-06 0)
(0.000240315903646 1.75551849455e-06 0)
(0.000240189154015 1.6588189238e-06 0)
(0.000240122843711 1.38411321347e-06 0)
(0.00024012180296 8.44167739023e-07 0)
(0.000240170856156 -6.14263999599e-08 0)
(0.000240228688431 -1.25668622939e-06 0)
(0.000270914810551 2.0487562791e-06 0)
(0.000270855136617 8.56252718504e-07 0)
(0.000270773780577 -1.15508485077e-07 0)
(0.000270711770923 -7.70755270611e-07 0)
(0.000270690682303 -1.1767190145e-06 0)
(0.000270716974592 -1.3991997921e-06 0)
(0.000270786892426 -1.49331368452e-06 0)
(0.000270891843993 -1.50095662035e-06 0)
(0.000271021850919 -1.45274367723e-06 0)
(0.00027116746796 -1.37031054651e-06 0)
(0.000271320658392 -1.26858261924e-06 0)
(0.000271475039699 -1.15761677901e-06 0)
(0.000271625805194 -1.04401839336e-06 0)
(0.000271769502738 -9.31980185349e-07 0)
(0.000271903773801 -8.24025846265e-07 0)
(0.000272027103389 -7.21532956382e-07 0)
(0.000272138602293 -6.25096812586e-07 0)
(0.000272237827327 -5.34781614427e-07 0)
(0.000272324637822 -4.50292849831e-07 0)
(0.000272399083609 -3.71094889895e-07 0)
(0.000272461319043 -2.96490601075e-07 0)
(0.000272511537925 -2.25674673841e-07 0)
(0.000272549924975 -1.5776878766e-07 0)
(0.00027257662035 -9.18442996554e-08 0)
(0.000272591694577 -2.69364808112e-08 0)
(0.000272595131993 3.79467603651e-08 0)
(0.000272586821506 1.03819413876e-07 0)
(0.000272566554116 1.71713286529e-07 0)
(0.000272534027232 2.42673543866e-07 0)
(0.000272488856482 3.17751995782e-07 0)
(0.000272430596366 3.97995867435e-07 0)
(0.000272358771885 4.84429079556e-07 0)
(0.00027227292417 5.78021928708e-07 0)
(0.000272172674176 6.796432927e-07 0)
(0.000272057809657 7.8998685069e-07 0)
(0.000271928401763 9.09458908191e-07 0)
(0.0002717849585 1.03800971588e-06 0)
(0.000271628622225 1.17488200447e-06 0)
(0.000271461416116 1.31823900472e-06 0)
(0.000271286537865 1.46461900123e-06 0)
(0.000271108683424 1.60814430944e-06 0)
(0.00027093435333 1.73939353261e-06 0)
(0.000270772037901 1.84383032582e-06 0)
(0.000270632087288 1.89970770196e-06 0)
(0.000270525933636 1.87541355338e-06 0)
(0.000270464163789 1.72660898809e-06 0)
(0.000270452898612 1.3936598702e-06 0)
(0.000270487721036 8.03469660785e-07 0)
(0.00027054814076 -1.20339431536e-07 0)
(0.000270590687207 -1.28927736367e-06 0)
(0.000299071573973 2.06859741189e-06 0)
(0.000299041553414 9.226531999e-07 0)
(0.000298971414685 -3.86451860052e-08 0)
(0.000298901798064 -7.16381250866e-07 0)
(0.000298855155207 -1.16053763976e-06 0)
(0.000298843122797 -1.42452501889e-06 0)
(0.000298867348065 -1.55599796301e-06 0)
(0.000298924002986 -1.59339600936e-06 0)
(0.000299006582437 -1.56641656247e-06 0)
(0.0002991078764 -1.49720300174e-06 0)
(0.000299221065173 -1.40184273009e-06 0)
(0.000299340252251 -1.29174800256e-06 0)
(0.000299460637984 -1.17482437849e-06 0)
(0.000299578494069 -1.0563959364e-06 0)
(0.000299691040393 -9.39912421345e-07 0)
(0.000299796285588 -8.27476048978e-07 0)
(0.000299892864998 -7.20227517735e-07 0)
(0.00029997989267 -6.18625491448e-07 0)
(0.000300056834001 -5.22647187852e-07 0)
(0.000300123400291 -4.31931316941e-07 0)
(0.000300179463811 -3.45879258735e-07 0)
(0.000300224990927 -2.63726207001e-07 0)
(0.000300259990622 -1.84590854438e-07 0)
(0.000300284475952 -1.07509914284e-07 0)
(0.000300298436445 -3.14621557496e-08 0)
(0.000300301819909 4.46144786702e-08 0)
(0.000300294522682 1.2180981704e-07 0)
(0.000300276387871 2.01230003588e-07 0)
(0.000300247211676 2.83985295375e-07 0)
(0.000300206758465 3.71174619775e-07 0)
(0.000300154785819 4.63863961549e-07 0)
(0.000300091081419 5.63054869479e-07 0)
(0.00030001551425 6.69638168444e-07 0)
(0.000299928103219 7.84326161593e-07 0)
(0.000299829106727 9.07554062096e-07 0)
(0.000299719136843 1.03933782594e-06 0)
(0.000299599300986 1.17907070661e-06 0)
(0.000299471371741 1.32523449754e-06 0)
(0.000299337980282 1.47499348656e-06 0)
(0.000299202818792 1.62363028681e-06 0)
(0.000299070819287 1.76377441075e-06 0)
(0.000298948245959 1.88437238988e-06 0)
(0.00029884259283 1.9693575742e-06 0)
(0.000298762109111 1.99603054026e-06 0)
(0.000298714717768 1.93323712318e-06 0)
(0.000298705951401 1.73976367057e-06 0)
(0.000298735898255 1.36348464979e-06 0)
(0.000298794145229 7.44486546072e-07 0)
(0.000298858286851 -1.74629317761e-07 0)
(0.000298885725672 -1.29989970306e-06 0)
(0.000325211656548 2.05716113883e-06 0)
(0.000325208098173 9.68381253104e-07 0)
(0.000325151440009 3.36172661208e-08 0)
(0.00032508075879 -6.49076086205e-07 0)
(0.000325017764304 -1.11657249439e-06 0)
(0.000324977066091 -1.41168474698e-06 0)
(0.000324964117614 -1.57476159559e-06 0)
(0.000324978949737 -1.64004024147e-06 0)
(0.000325018252342 -1.63526032054e-06 0)
(0.000325077183032 -1.58207468488e-06 0)
(0.000325150490484 -1.49692261279e-06 0)
(0.00032523319232 -1.39198077115e-06 0)
(0.000325320914994 -1.27605961348e-06 0)
(0.000325410020743 -1.1553726904e-06 0)
(0.000325497606803 -1.0341646465e-06 0)
(0.000325581436995 -9.15206202105e-07 0)
(0.000325659843472 -8.00175338398e-07 0)
(0.000325731621223 -6.89945967438e-07 0)
(0.000325795927663 -5.84803902235e-07 0)
(0.000325852193354 -4.84606944706e-07 0)
(0.000325900046079 -3.88902699062e-07 0)
(0.000325939248477 -2.97014804372e-07 0)
(0.00032596964842 -2.08105865383e-07 0)
(0.000325991140966 -1.21223473819e-07 0)
(0.000326003640702 -3.5334294909e-08 0)
(0.0003260070635 5.06498084395e-08 0)
(0.000326001317045 1.37850314716e-07 0)
(0.000325986299842 2.27402309494e-07 0)
(0.000325961908832 3.20433645015e-07 0)
(0.000325928056182 4.18039999179e-07 0)
(0.000325884696196 5.21252393363e-07 0)
(0.000325831863737 6.30992962743e-07 0)
(0.000325769725807 7.48013624215e-07 0)
(0.000325698648105 8.72810651762e-07 0)
(0.000325619278159 1.00550597842e-06 0)
(0.000325532645815 1.14568317214e-06 0)
(0.000325440279918 1.29216246907e-06 0)
(0.000325344336363 1.44269511477e-06 0)
(0.000325247726083 1.59355302069e-06 0)
(0.000325154220676 1.73898663955e-06 0)
(0.000325068496575 1.87052418617e-06 0)
(0.000324996053385 1.97609436862e-06 0)
(0.000324942911681 2.03897718602e-06 0)
(0.000324914948179 2.03664674419e-06 0)
(0.000324916731822 1.93964510279e-06 0)
(0.00032494958739 1.71088191595e-06 0)
(0.000325009237419 1.30582055076e-06 0)
(0.000325081702761 6.76009885965e-07 0)
(0.000325144654563 -2.21389096806e-07 0)
(0.000325157694839 -1.29164458275e-06 0)
(0.000349388055349 2.01902949227e-06 0)
(0.000349408007426 9.94229365065e-07 0)
(0.000349365742615 9.77162559898e-08 0)
(0.000349298365189 -5.75876162785e-07 0)
(0.000349226020997 -1.05359418149e-06 0)
(0.000349164794094 -1.36949246777e-06 0)
(0.000349122652347 -1.55725349209e-06 0)
(0.000349102571898 -1.64673432063e-06 0)
(0.000349103963186 -1.66314042638e-06 0)
(0.000349124224251 -1.62694068786e-06 0)
(0.000349159777412 -1.55427759115e-06 0)
(0.000349206786073 -1.45755908934e-06 0)
(0.00034926158338 -1.34609922506e-06 0)
(0.000349320902208 -1.22671999919e-06 0)
(0.000349381969815 -1.10427793439e-06 0)
(0.000349442518953 -9.82103496293e-07 0)
(0.000349500751342 -8.62356533726e-07 0)
(0.000349555277759 -7.46307452805e-07 0)
(0.000349605049978 -6.34556088376e-07 0)
(0.000349649293636 -5.27200062513e-07 0)
(0.000349687447021 -4.23963174382e-07 0)
(0.000349719108154 -3.24292777094e-07 0)
(0.000349743991101 -2.27433523632e-07 0)
(0.000349761891541 -1.32483514813e-07 0)
(0.000349772661344 -3.84377783862e-08 0)
(0.000349776191749 5.57768069982e-08 0)
(0.000349772404881 1.51271587907e-07 0)
(0.000349761253503 2.4916796753e-07 0)
(0.000349742729154 3.50567824143e-07 0)
(0.000349716879058 4.56519183588e-07 0)
(0.000349683832443 5.67973404724e-07 0)
(0.000349643837001 6.85729450453e-07 0)
(0.000349597306282 8.10359829362e-07 0)
(0.000349544878447 9.42111469984e-07 0)
(0.000349487486148 1.08077311264e-06 0)
(0.000349426435784 1.22549881908e-06 0)
(0.000349363491801 1.37457503621e-06 0)
(0.000349300957421 1.52511669015e-06 0)
(0.000349241736509 1.67267671607e-06 0)
(0.00034918935137 1.81075470458e-06 0)
(0.000349147877798 1.93019606489e-06 0)
(0.000349121740178 2.01848773991e-06 0)
(0.000349115293448 2.0589829431e-06 0)
(0.000349132088612 2.03014147079e-06 0)
(0.000349173765779 1.90493262236e-06 0)
(0.000349238368662 1.65073045049e-06 0)
(0.000349318652961 1.23005813201e-06 0)
(0.000349398762743 6.04044833378e-07 0)
(0.000349457517739 -2.5915257853e-07 0)
(0.000349457160593 -1.26709591566e-06 0)
(0.000371655577791 1.95799593394e-06 0)
(0.00037169634787 1.00144090687e-06 0)
(0.000371668531439 1.51655867476e-07 0)
(0.000371607227292 -5.0174112746e-07 0)
(0.000371530672556 -9.78481669655e-07 0)
(0.000371455455744 -1.30552825049e-06 0)
(0.000371391085806 -1.51072776453e-06 0)
(0.000371342680968 -1.61972178427e-06 0)
(0.000371311847835 -1.65494529982e-06 0)
(0.000371297962117 -1.63525611553e-06 0)
(0.00037129906262 -1.57602691436e-06 0)
(0.000371312538213 -1.48946006165e-06 0)
(0.000371335585503 -1.38500975954e-06 0)
(0.000371365497027 -1.2698257279e-06 0)
(0.000371399821772 -1.14917260217e-06 0)
(0.000371436438544 -1.02680161109e-06 0)
(0.000371473572823 -9.05266625964e-07 0)
(0.000371509779846 -7.86185241744e-07 0)
(0.000371543909711 -6.70450033191e-07 0)
(0.000371575064976 -5.58396935153e-07 0)
(0.000371602557377 -4.49938035818e-07 0)
(0.000371625867662 -3.44665640286e-07 0)
(0.000371644610754 -2.41933725048e-07 0)
(0.000371658507388 -1.40922107708e-07 0)
(0.000371667362741 -4.06879268873e-08 0)
(0.000371671052247 5.97915464833e-08 0)
(0.000371669514674 1.61581164114e-07 0)
(0.000371662752549 2.65751844237e-07 0)
(0.000371650840078 3.73342872407e-07 0)
(0.000371633938777 4.85319077318e-07 0)
(0.00037161232105 6.02519054093e-07 0)
(0.000371586401888 7.25590052933e-07 0)
(0.000371556778538 8.54904398833e-07 0)
(0.000371524277439 9.90451353353e-07 0)
(0.00037149000661 1.13169724771e-06 0)
(0.000371455409877 1.2774056194e-06 0)
(0.000371422316532 1.42540821686e-06 0)
(0.000371392975812 1.57231757288e-06 0)
(0.000371370059706 1.71317313414e-06 0)
(0.000371356609561 1.84101698132e-06 0)
(0.000371355892542 1.94640367309e-06 0)
(0.000371371121965 2.01686485405e-06 0)
(0.000371404990851 2.03637419967e-06 0)
(0.000371458949183 1.98490189738e-06 0)
(0.000371532227287 1.83819062578e-06 0)
(0.000371620435462 1.5680090202e-06 0)
(0.000371714441828 1.14314291503e-06 0)
(0.00037179762746 5.32546580144e-07 0)
(0.00037185046568 -2.87384547727e-07 0)
(0.000371837844372 -1.22845294214e-06 0)
(0.000392069055156 1.87724454798e-06 0)
(0.000392128206261 9.91475298581e-07 0)
(0.000392114363838 1.94500636139e-07 0)
(0.00039206075848 -4.3003857017e-07 0)
(0.000391983647074 -8.96449471894e-07 0)
(0.000391899524352 -1.22601885244e-06 0)
(0.000391818742797 -1.44161413773e-06 0)
(0.000391747909368 -1.56500719191e-06 0)
(0.000391690332588 -1.61585330951e-06 0)
(0.000391647052186 -1.61117990219e-06 0)
(0.000391617573218 -1.5652761868e-06 0)
(0.000391600484891 -1.48980805739e-06 0)
(0.000391593906422 -1.39406641913e-06 0)
(0.000391595797947 -1.28527353362e-06 0)
(0.000391604159985 -1.16890093021e-06 0)
(0.000391617150684 -1.04897047392e-06 0)
(0.000391633144722 -9.28324152769e-07 0)
(0.000391650753361 -8.08856970713e-07 0)
(0.000391668820266 -6.91712787496e-07 0)
(0.000391686403628 -5.7744592793e-07 0)
(0.000391702751895 -4.66152809545e-07 0)
(0.000391717277962 -3.57578318203e-07 0)
(0.000391729534951 -2.51201629168e-07 0)
(0.000391739195504 -1.46305885696e-07 0)
(0.000391746035749 -4.20357950844e-08 0)
(0.000391749924604 6.25531303552e-08 0)
(0.000391750818812 1.68450212902e-07 0)
(0.000391748763931 2.76646792524e-07 0)
(0.000391743901429 3.88091628607e-07 0)
(0.000391736481907 5.03641065464e-07 0)
(0.000391726884355 6.24000247778e-07 0)
(0.000391715641056 7.49651274508e-07 0)
(0.000391703467285 8.80763677702e-07 0)
(0.000391691294138 1.01708205593e-06 0)
(0.000391680301594 1.15778516566e-06 0)
(0.000391671947064 1.30131046872e-06 0)
(0.000391667981979 1.44513830526e-06 0)
(0.000391670445367 1.58553100766e-06 0)
(0.000391681618655 1.71722502503e-06 0)
(0.000391703920139 1.83307956685e-06 0)
(0.000391739711859 1.92369449037e-06 0)
(0.000391790984908 1.97702519168e-06 0)
(0.000391858892336 1.97804300524e-06 0)
(0.000391943085892 1.90852190431e-06 0)
(0.000392040897763 1.74705932961e-06 0)
(0.000392146211295 1.46952026825e-06 0)
(0.000392248794709 1.05008822958e-06 0)
(0.000392331965587 4.64025491904e-07 0)
(0.000392378022141 -3.06121700086e-07 0)
(0.000392354304097 -1.17760223069e-06 0)
(0.000410682154219 1.77948211898e-06 0)
(0.000410757486849 9.65870905246e-07 0)
(0.000410756826435 2.26023487078e-07 0)
(0.00041071173799 -3.62947489356e-07 0)
(0.000410636575101 -8.11335393759e-07 0)
(0.000410547392212 -1.13591405525e-06 0)
(0.00041045490593 -1.35536881323e-06 0)
(0.000410366707178 -1.4880234016e-06 0)
(0.000410287378802 -1.55088232157e-06 0)
(0.000410219311513 -1.55907232036e-06 0)
(0.000410163283603 -1.52561550074e-06 0)
(0.00041011899507 -1.46140914173e-06 0)
(0.00041008547706 -1.37534377557e-06 0)
(0.000410061400211 -1.27449769843e-06 0)
(0.000410045291338 -1.1643657111e-06 0)
(0.000410035677793 -1.04909323086e-06 0)
(0.000410031176629 -9.31698381597e-07 0)
(0.000410030544016 -8.1427268774e-07 0)
(0.000410032697389 -6.98156526853e-07 0)
(0.000410036719985 -5.84088971154e-07 0)
(0.000410041854933 -4.72333711484e-07 0)
(0.000410047494048 -3.62783856206e-07 0)
(0.000410053164882 -2.55048892721e-07 0)
(0.000410058518463 -1.48527248885e-07 0)
(0.000410063319299 -4.24678552956e-08 0)
(0.000410067438673 6.39759909247e-08 0)
(0.000410070851841 1.71697256598e-07 0)
(0.000410073639477 2.81587142851e-07 0)
(0.000410075993476 3.94485227531e-07 0)
(0.000410078227007 5.11124501598e-07 0)
(0.000410080788418 6.32067859339e-07 0)
(0.00041008427819 7.57632360579e-07 0)
(0.000410089467556 8.8779732435e-07 0)
(0.000410097316491 1.02209211898e-06 0)
(0.000410108987566 1.15945946226e-06 0)
(0.000410125850407 1.29809035301e-06 0)
(0.00041014946923 1.43522767975e-06 0)
(0.000410181563006 1.56693749373e-06 0)
(0.000410223924483 1.68785042719e-06 0)
(0.000410278280533 1.7908814857e-06 0)
(0.000410346073633 1.86694512397e-06 0)
(0.000410428141345 1.90469517013e-06 0)
(0.00041052427861 1.89033498651e-06 0)
(0.000410632656859 1.80756550576e-06 0)
(0.000410749164586 1.63775383448e-06 0)
(0.00041086651348 1.36045722587e-06 0)
(0.000410973922288 9.54430177592e-07 0)
(0.000411055059728 3.9998519874e-07 0)
(0.000411094032787 -3.15744853918e-07 0)
(0.000411060364502 -1.11617499887e-06 0)
(0.000427546520905 1.6670364435e-06 0)
(0.000427636048554 9.26167194979e-07 0)
(0.000427647594441 2.46465019786e-07 0)
(0.000427611274682 -3.01773386652e-07 0)
(0.000427539691088 -7.2587798279e-07 0)
(0.000427448277133 -1.03904478354e-06 0)
(0.000427347797895 -1.25647994233e-06 0)
(0.000427246453342 -1.39349267827e-06 0)
(0.000427149750457 -1.46463962659e-06 0)
(0.000427061146082 -1.48317560385e-06 0)
(0.000426982488963 -1.46077015802e-06 0)
(0.000426914466595 -1.40740311811e-06 0)
(0.000426856965945 -1.33139059412e-06 0)
(0.000426809363044 -1.23949326404e-06 0)
(0.000426770740935 -1.13707118957e-06 0)
(0.000426740047409 -1.02825854844e-06 0)
(0.000426716203697 -9.16140436315e-07 0)
(0.000426698175479 -8.02920617931e-07 0)
(0.000426685016137 -6.9007413555e-07 0)
(0.000426675890472 -5.78482184813e-07 0)
(0.000426670085377 -4.68548983483e-07 0)
(0.000426667012419 -3.60301811129e-07 0)
(0.000426666205947 -2.53476247016e-07 0)