/*--------------------------------*- C++ -*----------------------------------*\
| =========                 |                                                 |
| \\      /  F ield         | OpenFOAM: The Open Source CFD Toolbox           |
|  \\    /   O peration     | Version:  2.4.0                                 |
|   \\  /    A nd           | Web:      www.OpenFOAM.org                      |
|    \\/     M anipulation  |                                                 |
\*---------------------------------------------------------------------------*/
FoamFile
{
    version     2.0;
    format      ascii;
    class       volVectorField;
    location    "100";
    object      U;
}
// * * * * * * * * * * * * * * * * * * * * * * * * * * * * * * * * * * * * * //

dimensions      [0 1 -1 0 0 0 0];

internalField   nonuniform List<vector> 
2500
(
(-0.112385521248 -0.0138005227653 0)
(-0.0855495830413 -0.00940360102663 0)
(-0.0703107605103 -0.00481233419788 0)
(-0.0615798963816 -0.0027061375091 0)
(-0.056041455694 -0.00161128586236 0)
(-0.0523519724505 -0.00105442910805 0)
(-0.0497104932551 -0.000731519674866 0)
(-0.0477494213919 -0.000533707849319 0)
(-0.0462449674842 -0.000401107525898 0)
(-0.0450696656676 -0.000307732263048 0)
(-0.0441396340519 -0.000238556040704 0)
(-0.0433992691401 -0.0001856280618 0)
(-0.0428090996626 -0.000143949237903 0)
(-0.0423405172813 -0.000110424961437 0)
(-0.041972067743 -8.29534539551e-05 0)
(-0.0416873827893 -6.00893201739e-05 0)
(-0.0414737508803 -4.0787498597e-05 0)
(-0.0413211978332 -2.42773533705e-05 0)
(-0.0412218378355 -9.97289840729e-06 0)
(-0.0411694211636 2.58040172695e-06 0)
(-0.0411590056506 1.37431827636e-05 0)
(-0.04118671743 2.38071203627e-05 0)
(-0.0412495738157 3.30129217208e-05 0)
(-0.0413453524015 4.1563211184e-05 0)
(-0.041472494847 4.96321892728e-05 0)
(-0.0416300379125 5.73729816785e-05 0)
(-0.041817566593 6.4923420873e-05 0)
(-0.0420351860476 7.24107014499e-05 0)
(-0.0422835103121 7.99552317502e-05 0)
(-0.042563666837 8.76738577227e-05 0)
(-0.042877316807 9.56825410729e-05 0)
(-0.0432266919291 0.000104098341619 0)
(-0.0436146492329 0.00011304037644 0)
(-0.0440447456077 0.000122628565928 0)
(-0.0445213348214 0.000132978548227 0)
(-0.045049687566 0.000144187747022 0)
(-0.0456361382763 0.00015630794116 0)
(-0.0462882532172 0.00016928832857 0)
(-0.0470150407701 0.000182889089365 0)
(-0.0478272154871 0.000196538261067 0)
(-0.0487377199559 0.000209246488028 0)
(-0.0497628748779 0.000219675937562 0)
(-0.0509254969241 0.000227319219607 0)
(-0.0522632425052 0.000235929388436 0)
(-0.0538469255665 0.000264130070432 0)
(-0.0558319030631 0.000368303122851 0)
(-0.0585210177388 0.000691407743582 0)
(-0.0626372235428 0.00153570304531 0)
(-0.0690703497684 0.00357142970694 0)
(-0.0807034055181 0.00816776083709 0)
(-0.256880129301 -0.0429325429682 0)
(-0.226631084957 -0.0309197582802 0)
(-0.205649790203 -0.0182758892695 0)
(-0.190670319308 -0.0119228869084 0)
(-0.179642419964 -0.00802730207004 0)
(-0.171438033188 -0.00572995444749 0)
(-0.165168956804 -0.00421900433096 0)
(-0.160308998439 -0.00319097896878 0)
(-0.156486020784 -0.0024475926191 0)
(-0.153454254842 -0.00189196547669 0)
(-0.151038774037 -0.00146191679533 0)
(-0.149114903875 -0.00112095203114 0)
(-0.147590344249 -0.000844581177995 0)
(-0.146395738858 -0.000616567065527 0)
(-0.145477836348 -0.000425389884804 0)
(-0.144795236985 -0.000262763318477 0)
(-0.144315386905 -0.000122491571595 0)
(-0.144012532637 1.51534745075e-07 0)
(-0.143866249378 0.000108868906493 0)
(-0.143860384445 0.00020662241112 0)
(-0.143982279313 0.000295835529391 0)
(-0.144222195211 0.000378534382772 0)
(-0.144572886383 0.000456452448468 0)
(-0.145029285846 0.000531109146086 0)
(-0.145588278778 0.000603871626002 0)
(-0.146248547212 0.000676005001802 0)
(-0.147010475198 0.000748715257865 0)
(-0.147876107976 0.000823187792966 0)
(-0.148849162168 0.000900624110564 0)
(-0.149935087128 0.000982278810561 0)
(-0.151141180772 0.00106949907558 0)
(-0.152476766633 0.00116376883278 0)
(-0.153953443759 0.00126676043215 0)
(-0.155585426343 0.00138039644308 0)
(-0.157390001394 0.00150692674917 0)
(-0.15938814253 0.00164902387917 0)
(-0.161605353367 0.00180991259216 0)
(-0.16407283053 0.00199354039467 0)
(-0.166829161495 0.00220487215012 0)
(-0.169922767125 0.00245036231394 0)
(-0.173415724215 0.00273908649995 0)
(-0.177389306061 0.00308488054992 0)
(-0.181952590636 0.00351196907017 0)
(-0.187253851022 0.00406532195315 0)
(-0.193491929598 0.00483626328885 0)
(-0.200929150511 0.00600106296921 0)
(-0.209833226122 0.00790957000476 0)
(-0.220500047945 0.0111451457895 0)
(-0.232553543821 0.0167273659914 0)
(-0.246113733388 0.0250265233735 0)
(-0.32427821927 -0.0622387500045 0)
(-0.307514736621 -0.0476617888401 0)
(-0.29304811472 -0.0313359594794 0)
(-0.280645537291 -0.0222944586654 0)
(-0.270499761796 -0.0159768363559 0)
(-0.262361536968 -0.0118883793005 0)
(-0.255837130206 -0.0089867304165 0)
(-0.250609743517 -0.00690012154551 0)
(-0.246411670445 -0.00532761187578 0)
(-0.243043042812 -0.00411465170467 0)
(-0.240349114151 -0.00315254500721 0)
(-0.238212065959 -0.00237431808778 0)
(-0.236540303536 -0.00173282708276 0)
(-0.235262267714 -0.00119569543421 0)
(-0.234321371611 -0.000739248002711 0)
(-0.233672610733 -0.000346011413415 0)
(-0.233280010591 -2.62437637939e-06 0)
(-0.233114796821 0.000301315599122 0)
(-0.23315402265 0.000574113027396 0)
(-0.23337954736 0.000822530582643 0)
(-0.233777262276 0.00105219839145 0)
(-0.234336505395 0.00126790520488 0)
(-0.235049618469 0.00147381950924 0)
(-0.235911616346 0.00167365945095 0)
(-0.236919946527 0.00187082982021 0)
(-0.238074323938 0.00206853650394 0)
(-0.239376630651 0.00226988711012 0)
(-0.240830874023 0.00247798410429 0)
(-0.242443199819 0.00269601609274 0)
(-0.244221959399 0.0029273524154 0)
(-0.246177832738 0.00317564660997 0)
(-0.248324011146 0.00344495488673 0)
(-0.250676447403 0.0037398778941 0)
(-0.253254182285 0.00406573547755 0)
(-0.256079765917 0.0044287914327 0)
(-0.25917978706 0.00483654659385 0)
(-0.262585557075 0.00529814729788 0)
(-0.266333944734 0.00582494922462 0)
(-0.270468496125 0.00643140344195 0)
(-0.275040647605 0.00713634912638 0)
(-0.2801114249 0.00796537305367 0)
(-0.28575218194 0.00895422272221 0)
(-0.292045413858 0.01015586095 0)
(-0.299077649543 0.0116487656971 0)
(-0.306926594302 0.0135564936244 0)
(-0.315609408467 0.0160539956163 0)
(-0.324994890322 0.0194093847805 0)
(-0.334604409152 0.0238745053075 0)
(-0.343353768064 0.0298057806435 0)
(-0.349599374448 0.0365469678745 0)
(-0.362298278856 -0.0692262390179 0)
(-0.357568645704 -0.0553748002231 0)
(-0.350892454189 -0.039071551602 0)
(-0.343527524845 -0.0293102986698 0)
(-0.336629800035 -0.0218222385303 0)
(-0.33056131962 -0.0166712019515 0)
(-0.325407121849 -0.0128050163053 0)
(-0.321115874086 -0.00991175099044 0)
(-0.317589073264 -0.0076580932112 0)
(-0.314725390282 -0.00587476946876 0)
(-0.312431488595 -0.0044300847298 0)
(-0.310627542872 -0.00324095736126 0)
(-0.309246440193 -0.00224593754688 0)
(-0.308232622664 -0.00140170250643 0)
(-0.30754026531 -0.000675595036915 0)
(-0.307131738732 -4.29658685391e-05 0)
(-0.306976239325 0.000515447453168 0)
(-0.30704868651 0.00101491940307 0)
(-0.307328821289 0.00146785201557 0)
(-0.307800486127 0.0018844977922 0)
(-0.308451046978 0.0022735099519 0)
(-0.309270932382 0.00264233927698 0)
(-0.310253266313 0.0029975420286 0)
(-0.311393577609 0.00334501997126 0)
(-0.312689571857 0.00369021654342 0)
(-0.314140954707 0.00403828207966 0)
(-0.315749297511 0.00439421944262 0)
(-0.317517937612 0.00476301808502 0)
(-0.319451906403 0.00514978361024 0)
(-0.321557878326 0.0055598689827 0)
(-0.323844133851 0.00599901368103 0)
(-0.326320527371 0.00647349718921 0)
(-0.328998450597 0.00699031508058 0)
(-0.331890773826 0.00755738618008 0)
(-0.33501175188 0.00818380632716 0)
(-0.338376848596 0.00888016100141 0)
(-0.342002472562 0.00965893777651 0)
(-0.345905464434 0.010535050497 0)
(-0.350102412258 0.0115266144234 0)
(-0.354608104037 0.0126559173415 0)
(-0.359433751201 0.0139511206748 0)
(-0.364581658281 0.0154480101371 0)
(-0.370040416015 0.0171939847201 0)
(-0.375764251428 0.0192491162179 0)
(-0.381662431338 0.0216945738699 0)
(-0.387517102852 0.0246147552834 0)
(-0.392999402293 0.0281148298725 0)
(-0.397338496649 0.0321677686004 0)
(-0.399856223431 0.0367438655623 0)
(-0.398480534892 0.0409944326288 0)
(-0.388628203061 -0.0686829047912 0)
(-0.391917571354 -0.0569596904865 0)
(-0.391273037122 -0.0423678024408 0)
(-0.388515100839 -0.0329895754815 0)
(-0.384963748721 -0.0252678941562 0)
(-0.381307261812 -0.0196752199523 0)
(-0.37791719852 -0.0152758658068 0)
(-0.374935046802 -0.0118684726026 0)
(-0.372401550468 -0.00913652008403 0)
(-0.370305959648 -0.00692583636564 0)
(-0.368617043533 -0.00510139427422 0)
(-0.367296791947 -0.00357669528176 0)
(-0.366307198044 -0.00228423590168 0)
(-0.365613114849 -0.00117528534125 0)
(-0.365183336584 -0.000211959648371 0)
(-0.364990798825 0.000634934747709 0)
(-0.365012396073 0.00138868180538 0)
(-0.365228639749 0.00206804168547 0)
(-0.365623272821 0.00268846157578 0)
(-0.366182890735 0.00326285387893 0)
(-0.366896591418 0.00380221230369 0)
(-0.367755660794 0.00431605941778 0)
(-0.368753293683 0.00481280023977 0)
(-0.369884346106 0.00529999904778 0)
(-0.371145113477 0.0057846058773 0)
(-0.372533128206 0.00627314522898 0)
(-0.374046969677 0.00677187883349 0)
(-0.375686078842 0.00728695013229 0)
(-0.377450568956 0.00782451696605 0)
(-0.379341022431 0.00839087739954 0)
(-0.38135826273 0.0089925931367 0)
(-0.383503086292 0.00963661410674 0)
(-0.385775939722 0.0103304086083 0)
(-0.388176515081 0.0110821016973 0)
(-0.39070324822 0.0119006297942 0)
(-0.393352654604 0.0127959113749 0)
(-0.396118518936 0.0137790592579 0)
(-0.398990712834 0.0148626152371 0)
(-0.401953879321 0.016060909375 0)
(-0.404984981308 0.0173903947639 0)
(-0.408051273671 0.0188703938016 0)
(-0.411103723643 0.0205232851352 0)
(-0.414075179182 0.0223761129352 0)
(-0.416857435204 0.0244578171713 0)
(-0.41931270838 0.0268022596413 0)
(-0.42117861595 0.0294243945205 0)
(-0.42220589434 0.032329160502 0)
(-0.421699694209 0.0353776166581 0)
(-0.41961800605 0.0383892081478 0)
(-0.413911326208 0.0406849538539 0)
(-0.407644387802 -0.0642088029644 0)
(-0.415755587837 -0.0549458549599 0)
(-0.419255541084 -0.0425860587367 0)
(-0.420007822972 -0.0340899146426 0)
(-0.419201129132 -0.0266849659978 0)
(-0.417664814592 -0.021067575794 0)
(-0.415894992006 -0.0164729461706 0)
(-0.414149680072 -0.012806244837 0)
(-0.412562145589 -0.00979295787336 0)
(-0.41118948355 -0.00730733848408 0)
(-0.410050420108 -0.00522349429208 0)
(-0.409142832605 -0.00345986602293 0)
(-0.408454910361 -0.00194914608151 0)
(-0.407970609507 -0.000641653335839 0)
(-0.407672805016 0.000502424703534 0)
(-0.407544810166 0.00151435830644 0)
(-0.407571148173 0.00241955394488 0)
(-0.407737847905 0.00323875584872 0)
(-0.408032508747 0.00398923019373 0)
(-0.408444230138 0.00468551250327 0)
(-0.408963476592 0.00534002697019 0)
(-0.409581909172 0.00596353763953 0)
(-0.410292203079 0.00656551101594 0)
(-0.411087859365 0.00715439972499 0)
(-0.411963014181 0.00773787375253 0)
(-0.412912245117 0.00832300968289 0)
(-0.413930372271 0.0089164491484 0)
(-0.41501225002 0.00952453306651 0)
(-0.416152544575 0.0101534172449 0)
(-0.417345490963 0.0108091731372 0)
(-0.418584623199 0.0114978769189 0)
(-0.419862468058 0.0122256889269 0)
(-0.421170197108 0.0129989260947 0)
(-0.422497218096 0.0138241279812 0)
(-0.42383071221 0.0147081219344 0)
(-0.425155057828 0.0156580841311 0)
(-0.4264512168 0.016681617192 0)
(-0.427695822332 0.0177868184516 0)
(-0.428860422491 0.0189824238288 0)
(-0.429909583945 0.0202778620084 0)
(-0.430800381706 0.0216835769045 0)
(-0.431476612395 0.0232106590543 0)
(-0.431871830966 0.024871404634 0)
(-0.431886166866 0.0266756622513 0)
(-0.431416738345 0.0286310861116 0)
(-0.430251333026 0.0307217719969 0)
(-0.428283283801 0.0329088250482 0)
(-0.424970948478 0.0350388515097 0)
(-0.420681393646 0.0368928869494 0)
(-0.413588566815 0.0380573001773 0)
(-0.420613768327 -0.0580701594628 0)
(-0.431165376438 -0.0511055985025 0)
(-0.437212811445 -0.0409672932916 0)
(-0.440372485395 -0.0335237735037 0)
(-0.441594636602 -0.0267064193393 0)
(-0.441712856572 -0.0213090273036 0)
(-0.441243579567 -0.0167469602712 0)
(-0.440502637704 -0.0130093082085 0)
(-0.439675502786 -0.00987314169886 0)
(-0.43886490463 -0.00724376388881 0)
(-0.438125723572 -0.00501079447266 0)
(-0.437483849744 -0.00310187516744 0)
(-0.436948907229 -0.00145377640338 0)
(-0.43652116335 -1.87779642016e-05 0)
(-0.436195906803 0.00124250671047 0)
(-0.435965868095 0.0023615736927 0)
(-0.435822676627 0.00336444875844 0)
(-0.435757650224 0.00427262535912 0)
(-0.435762226393 0.00510414764016 0)
(-0.435828159872 0.0058742771548 0)
(-0.435947588022 0.00659607605542 0)
(-0.436113012997 0.00728083330794 0)
(-0.436317235367 0.00793841462166 0)
(-0.436553257395 0.00857753705887 0)
(-0.436814167569 0.00920599364054 0)
(-0.437093012334 0.00983083579843 0)
(-0.437382658224 0.0104585240741 0)
(-0.437675645446 0.0110950527986 0)
(-0.43796403314 0.0117460540011 0)
(-0.438239235183 0.0124168841462 0)
(-0.438491846437 0.0131126969326 0)
(-0.438711455841 0.013838504475 0)
(-0.438886449603 0.0145992299199 0)
(-0.439003790901 0.0153997528534 0)
(-0.439048797248 0.0162449532977 0)
(-0.43900485153 0.0171397520675 0)
(-0.438853159934 0.018089164751 0)
(-0.43857223959 0.019098344286 0)
(-0.438137736737 0.0201726724575 0)
(-0.43752098859 0.0213177460879 0)
(-0.436689552342 0.0225394905356 0)
(-0.435601685535 0.023843595175 0)
(-0.434212193242 0.0252352767938 0)
(-0.43244846114 0.0267156295954 0)
(-0.430250956885 0.028279321933 0)
(-0.42746205992 0.0298984920478 0)
(-0.424071773279 0.0315148135216 0)
(-0.419665851783 0.0329938403824 0)
(-0.414768409904 0.0341234517697 0)
(-0.407848391977 0.0347093660375 0)
(-0.428333654591 -0.0515459693517 0)
(-0.439658120528 -0.046501542976 0)
(-0.447016765998 -0.0383529836023 0)
(-0.451653143118 -0.0319727028505 0)
(-0.454251921121 -0.0258586443668 0)
(-0.45555847263 -0.0208224632679 0)
(-0.45605013169 -0.0164431977451 0)
(-0.456057081234 -0.0127705338021 0)
(-0.45578689624 -0.00963388013184 0)
(-0.455369369445 -0.00696750758576 0)
(-0.454883344009 -0.00467918363718 0)
(-0.454375287356 -0.00270749619632 0)
(-0.453871547736 -0.000995488962823 0)
(-0.453385857265 0.000500863512014 0)
(-0.452924227672 0.00181897911328 0)
(-0.452487912623 0.00298932278308 0)
(-0.452075301092 0.00403748212095 0)
(-0.451683063366 0.00498482222728 0)
(-0.451306862621 0.00584942714587 0)
(-0.450941774904 0.00664666281413 0)
(-0.45058253247 0.00738970305755 0)
(-0.450223651333 0.00808991695171 0)
(-0.449859487 0.00875719614608 0)
(-0.449484243868 0.00940021481296 0)
(-0.449091955703 0.010026645503 0)
(-0.448676447785 0.0106433361159 0)
(-0.448231287793 0.0112564574175 0)
(-0.447749729713 0.0118716260538 0)
(-0.447224653814 0.012494008058 0)
(-0.446648503789 0.0131284064005 0)
(-0.446013223031 0.0137793359205 0)
(-0.445310187137 0.0144510881915 0)
(-0.444530137204 0.0151477893547 0)
(-0.443663097145 0.015873452342 0)
(-0.442698298086 0.0166320277189 0)
(-0.441624031082 0.0174274500977 0)
(-0.440427555152 0.0182636889443 0)
(-0.439094691049 0.019144778037 0)
(-0.437609787086 0.0200748479167 0)
(-0.435954286283 0.0210580302166 0)
(-0.43410753489 0.0220983174525 0)
(-0.432041163098 0.0231988151949 0)
(-0.429726088801 0.024360726446 0)
(-0.427108887945 0.0255800498047 0)
(-0.424156057067 0.0268433327804 0)
(-0.420747467175 0.0281176379188 0)
(-0.416920582478 0.0293371864908 0)
(-0.412358079459 0.0303940907926 0)
(-0.40759698052 0.0311044441137 0)
(-0.401387004328 0.0314083839819 0)
(-0.431776554143 -0.0453116282726 0)
(-0.442822883863 -0.0417545579491 0)
(-0.450614591041 -0.0352903857399 0)
(-0.456014230831 -0.0299074548711 0)
(-0.459459873985 -0.0245279308056 0)
(-0.461560233218 -0.0199305415954 0)
(-0.462723175832 -0.0158302413486 0)
(-0.463262562419 -0.012317859543 0)
(-0.463386978896 -0.00927115764893 0)
(-0.463238473282 -0.00664970877299 0)
(-0.462909885223 -0.00437989003563 0)
(-0.462461769585 -0.00241160261661 0)
(-0.461932968074 -0.000695254354619 0)
(-0.461348026329 0.000808551281108 0)
(-0.460722071678 0.00213433085307 0)
(-0.460064012156 0.00331073554352 0)
(-0.459378649378 0.00436223995798 0)
(-0.458668050256 0.00530952537454 0)
(-0.457932450213 0.00617025997457 0)
(-0.457170839532 0.00695955013714 0)
(-0.456381346804 0.00769039839142 0)
(-0.455561486464 0.00837404528084 0)
(-0.454708318096 0.00902026881903 0)
(-0.453818547047 0.00963762686431 0)
(-0.452888586686 0.0102336629233 0)
(-0.451914595291 0.0108150778816 0)
(-0.450892496284 0.0113878757517 0)
(-0.449817987164 0.0119574873152 0)
(-0.448686540678 0.0125288759949 0)
(-0.447493399092 0.0131066289568 0)
(-0.446233562859 0.0136950362198 0)
(-0.444901768864 0.014298159695 0)
(-0.443492461125 0.014919894014 0)
(-0.441999732586 0.0155640192794 0)
(-0.440417260034 0.016234246585 0)
(-0.438738143862 0.0169342509543 0)
(-0.436954787891 0.0176676900976 0)
(-0.435058430018 0.0184381834999 0)
(-0.433039058992 0.0192492417551 0)
(-0.430883911084 0.0201040506382 0)
(-0.428578348585 0.0210050668217 0)
(-0.426100475924 0.0219531369608 0)
(-0.42342866392 0.0229459403215 0)
(-0.420519911747 0.0239753182797 0)
(-0.417353949766 0.025022203126 0)
(-0.413837358456 0.0260519936944 0)
(-0.410028031656 0.0269995996315 0)
(-0.405683127284 0.0277821920765 0)
(-0.401294352492 0.0282523206921 0)
(-0.395838779247 0.028416765505 0)
(-0.432100307751 -0.0396701109425 0)
(-0.442306329061 -0.037203565951 0)
(-0.44997100912 -0.0321140993126 0)
(-0.455635620951 -0.0276265855141 0)
(-0.459535911116 -0.0229639701006 0)
(-0.462131583893 -0.0188403888752 0)
(-0.463749563144 -0.0150760257481 0)
(-0.46466811944 -0.0117871604617 0)
(-0.465082773731 -0.00889346829446 0)
(-0.465136432882 -0.0063757635206 0)
(-0.464927969296 -0.00417822355563 0)
(-0.464526420151 -0.00226170047523 0)
(-0.463979300518 -0.000584364546566 0)
(-0.463319396523 0.000888117039043 0)
(-0.462569250698 0.00218683205392 0)
(-0.461744339685 0.00333815180957 0)
(-0.460855225399 0.00436502030093 0)
(-0.45990903029 0.00528709048024 0)
(-0.458910445228 0.00612133527796 0)
(-0.457862420439 0.00688238629349 0)
(-0.456766642255 0.00758291735087 0)
(-0.455623863581 0.00823393647113 0)
(-0.454434135045 0.00884505271458 0)
(-0.453196967698 0.00942469707008 0)
(-0.451911448378 0.00998031452769 0)
(-0.450576321564 0.0105185271192 0)
(-0.44919004693 0.0110452743264 0)
(-0.447750838134 0.0115659333914 0)
(-0.446256686299 0.0120854228405 0)
(-0.444705368623 0.0126082913025 0)
(-0.443094442889 0.0131387934202 0)
(-0.441421222165 0.0136809537445 0)
(-0.439682732172 0.0142386189282 0)
(-0.437875629059 0.014815496861 0)
(-0.435996101112 0.0154151803493 0)
(-0.434039667003 0.0160411484231 0)
(-0.432001013387 0.0166967355723 0)
(-0.429873494199 0.017385047064 0)
(-0.427649042149 0.0181087865013 0)
(-0.425316760641 0.018869941587 0)
(-0.42286393835 0.0196692019513 0)
(-0.420271315841 0.020505063398 0)
(-0.417520796358 0.0213720743819 0)
(-0.414576639688 0.0222589246254 0)
(-0.411426943724 0.0231435245538 0)
(-0.408000056804 0.0239922674703 0)
(-0.404362148205 0.0247461553007 0)
(-0.400326379684 0.0253431290325 0)
(-0.396324965362 0.0256713613745 0)
(-0.391503089171 0.0257636476471 0)
(-0.430461347053 -0.0347097590243 0)
(-0.439609689514 -0.033012145066 0)
(-0.446840607327 -0.0290150202507 0)
(-0.452457851979 -0.0253057755228 0)
(-0.456547484105 -0.0213118865303 0)
(-0.45943180834 -0.0176659318407 0)
(-0.461357706933 -0.0142643161528 0)
(-0.462558234983 -0.0112361869601 0)
(-0.463207176647 -0.00853554853343 0)
(-0.463439970029 -0.00616035268855 0)
(-0.463355253336 -0.00407096796787 0)
(-0.463025740482 -0.00223840825073 0)
(-0.462504135405 -0.000628549252913 0)
(-0.46182891795 0.00078775842503 0)
(-0.461028195908 0.00203790599874 0)
(-0.460122654169 0.00314571184175 0)
(-0.459127600178 0.00413232080379 0)
(-0.458054435801 0.00501612358959 0)
(-0.456911692611 0.00581319845286 0)
(-0.455705769728 0.00653754006581 0)
(-0.454441459749 0.00720136509557 0)
(-0.453122327029 0.00781535114495 0)
(-0.451750981536 0.00838886664525 0)
(-0.45032927843 0.00893016602941 0)
(-0.448858463925 0.00944656359354 0)
(-0.447339281351 0.00994458328477 0)
(-0.445772046747 0.010430088977 0)
(-0.444156699737 0.0109083963794 0)
(-0.442492833429 0.0113843687877 0)
(-0.440779704091 0.0118624978101 0)
(-0.439016221902 0.0123469699301 0)
(-0.437200917813 0.012841718901 0)
(-0.435331890251 0.0133504630882 0)
(-0.433406711577 0.0138767254465 0)
(-0.431422320604 0.0144238316326 0)
(-0.429374820901 0.014994879104 0)
(-0.427259330954 0.0155926628936 0)
(-0.425069536485 0.0162195419442 0)
(-0.422797677091 0.016877199808 0)
(-0.420433366849 0.0175662829891 0)
(-0.417964773463 0.0182857499472 0)
(-0.41537468203 0.0190320581371 0)
(-0.412648060333 0.0197974844112 0)
(-0.409756066584 0.0205689152217 0)
(-0.406693634061 0.0213236284181 0)
(-0.403407212526 0.0220308444385 0)
(-0.399965467575 0.0226402029524 0)
(-0.396221631969 0.0231057137967 0)
(-0.392552067775 0.0233455872239 0)
(-0.388220682053 0.0233983911569 0)
(-0.427832633077 -0.0304031465782 0)
(-0.43591888652 -0.0292336099425 0)
(-0.442589057845 -0.0260873642339 0)
(-0.447988921511 -0.02303722292 0)
(-0.452104151094 -0.0196458084903 0)
(-0.455143333616 -0.0164587079502 0)
(-0.457281719158 -0.0134237536653 0)
(-0.458704900651 -0.010673174601 0)
(-0.459560495653 -0.00818747227502 0)
(-0.459970911576 -0.00597773840768 0)
(-0.460029823002 -0.00401840713394 0)
(-0.45980964728 -0.00228958048581 0)
(-0.459365193058 -0.000764455899896 0)
(-0.458738224189 0.000581032070394 0)
(-0.457960545651 0.00177048996562 0)
(-0.457056573476 0.00282503546639 0)
(-0.456045167854 0.00376383630721 0)
(-0.454941015471 0.00460384614671 0)
(-0.453755629649 0.00536008395494 0)
(-0.45249808775 0.00604575920245 0)
(-0.451175571172 0.00667249901679 0)
(-0.44979376488 0.00725053298616 0)
(-0.4483571539 0.00778888346256 0)
(-0.446869244602 0.0082955321855 0)
(-0.445332729857 0.00877757281953 0)
(-0.443749611498 0.00924134440979 0)
(-0.442121289315 0.00969254850561 0)
(-0.4404486226 0.0101363498236 0)
(-0.43873196843 0.0105774616415 0)
(-0.436971198158 0.0110202162483 0)
(-0.435165694326 0.0114686205705 0)
(-0.433314324409 0.011926396349 0)
(-0.431415396598 0.0123970032108 0)
(-0.429466580588 0.0128836418856 0)
(-0.427464821429 0.0133892319792 0)
(-0.425406174967 0.0139163577186 0)
(-0.423285708194 0.0144671655226 0)
(-0.421097148189 0.0150432030967 0)
(-0.418832969124 0.0156451503363 0)
(-0.416483469239 0.0162724531742 0)
(-0.414038062668 0.0169226849491 0)
(-0.411482074094 0.017590862705 0)
(-0.408803892801 0.0182679900808 0)
(-0.40598137034 0.0189403982095 0)
(-0.403015198452 0.0195864206501 0)
(-0.399866076388 0.0201790064342 0)
(-0.39660205867 0.0206768111963 0)
(-0.393103709941 0.0210457932168 0)
(-0.389700717819 0.0212273368009 0)
(-0.385739692658 0.0212573451778 0)
(-0.424911438214 -0.0266687192095 0)
(-0.432041487567 -0.0258559701877 0)
(-0.438135640447 -0.0233640216269 0)
(-0.443244582074 -0.0208610756241 0)
(-0.447293536901 -0.0179981325118 0)
(-0.450404177066 -0.0152365599828 0)
(-0.452692152054 -0.0125561786587 0)
(-0.454298320068 -0.0100851519067 0)
(-0.455342970417 -0.00782310545497 0)
(-0.455932343275 -0.00579052475867 0)
(-0.456151884045 -0.00397349629315 0)
(-0.456070658423 -0.00235994190905 0)
(-0.455743033354 -0.000929748495111 0)
(-0.455211962773 0.000336338317759 0)
(-0.454511261908 0.00145819758956 0)
(-0.45366770481 0.0024542003132 0)
(-0.452702573537 0.00334143363226 0)
(-0.451632887127 0.00413528921691 0)
(-0.450472319144 0.00484959425057 0)
(-0.449231898201 0.00549664259498 0)
(-0.447920535613 0.00608734666147 0)
(-0.446545427141 0.00663136955465 0)
(-0.445112359003 0.00713727548786 0)
(-0.443625942307 0.00761266708407 0)
(-0.442089792661 0.00806431547581 0)
(-0.440506667288 0.00849827635214 0)
(-0.438878568346 0.00891999300616 0)
(-0.437206818459 0.00933438513514 0)
(-0.435492112874 0.00974592367549 0)
(-0.433734550307 0.0101586913177 0)
(-0.431933645343 0.0105764282339 0)
(-0.430088320026 0.0110025619444 0)
(-0.428196880819 0.0114402191898 0)
(-0.426256966662 0.0118922168874 0)
(-0.424265496563 0.0123610261886 0)
(-0.422218553792 0.0128487039177 0)
(-0.420111343058 0.0133567753492 0)
(-0.417937938033 0.0138860630145 0)
(-0.415691454025 0.0144364144056 0)
(-0.413363349558 0.0150063577542 0)
(-0.410944760668 0.0155925231763 0)
(-0.408423885292 0.0161890983069 0)
(-0.405792588397 0.0167866494437 0)
(-0.403034681535 0.0173718528716 0)
(-0.400155388876 0.0179250355125 0)
(-0.397125953591 0.0184230719592 0)
(-0.394012168687 0.0188328188213 0)
(-0.390712652369 0.0191289600438 0)
(-0.387520073426 0.0192698329121 0)
(-0.383839179605 0.0192860724968 0)
(-0.422119477812 -0.0234078809714 0)
(-0.428440332803 -0.0228342113382 0)
(-0.434001962246 -0.0208429787403 0)
(-0.438804140621 -0.0187884589323 0)
(-0.442740663283 -0.0163804620677 0)
(-0.445870895142 -0.0140038004174 0)
(-0.448263686911 -0.0116562353596 0)
(-0.450020703532 -0.009457112693 0)
(-0.451236081765 -0.00741877063301 0)
(-0.451998754928 -0.00556774241935 0)
(-0.452384027649 -0.00389927803582 0)
(-0.452455510889 -0.00240774068498 0)
(-0.452265218572 -0.00107889295655 0)
(-0.451855644939 0.000102124360612 0)
(-0.451261249895 0.00115164756373 0)
(-0.450510043079 0.00208535063846 0)
(-0.449624808633 0.00291821177613 0)
(-0.448624137634 0.00366399184356 0)
(-0.447523228745 0.00433523674056 0)
(-0.446334524186 0.0049432273528 0)
(-0.445068204602 0.00549806258958 0)
(-0.443732578127 0.00600874272065 0)
(-0.442334385636 0.00648328169075 0)
(-0.440879041586 0.0069288160159 0)
(-0.439370824112 0.00735171280759 0)
(-0.437813024921 0.00775766861273 0)
(-0.43620806671 0.0081517985874 0)
(-0.434557593636 0.00853871379218 0)
(-0.432862539188 0.00892258607952 0)
(-0.431123173745 0.00930719963229 0)
(-0.429339135071 0.00969598820119 0)
(-0.427509440256 0.0100920566268 0)
(-0.425632485833 0.0104981842334 0)
(-0.423706024226 0.0109168071696 0)
(-0.421727144424 0.0113499738162 0)
(-0.419692201968 0.0117992685458 0)
(-0.41759682566 0.0122656892418 0)
(-0.415435749844 0.012749477283 0)
(-0.413203049696 0.0132498591459 0)
(-0.410891621992 0.0137647387307 0)
(-0.408494510257 0.0142902014289 0)
(-0.406002736435 0.0148201010689 0)
(-0.403411327708 0.0153451584881 0)
(-0.400709016859 0.0158529495338 0)
(-0.397904358834 0.0163261797245 0)
(-0.39497604354 0.0167454431427 0)
(-0.391986880607 0.0170845304065 0)
(-0.388847242234 0.0173244788075 0)
(-0.385821104458 0.0174356630821 0)
(-0.382355029389 0.0174433208957 0)
(-0.419660061394 -0.0205258110206 0)
(-0.425319951503 -0.0201122568589 0)
(-0.430416181897 -0.0185057758477 0)
(-0.434925871546 -0.016816699466 0)
(-0.438730567851 -0.0147961540282 0)
(-0.441847412344 -0.0127621879415 0)
(-0.444310248252 -0.0107211498584 0)
(-0.446188223072 -0.00878081642567 0)
(-0.447551960388 -0.00696104795358 0)
(-0.44847344375 -0.00529159074152 0)
(-0.449017078245 -0.00377447743548 0)
(-0.449239801889 -0.00240911134851 0)
(-0.449190002067 -0.00118620620006 0)
(-0.448908537681 -9.47734664662e-05 0)
(-0.448429506835 0.000878271590777 0)
(-0.447781319214 0.00174604257655 0)
(-0.446987582111 0.00252145293401 0)
(-0.446067911407 0.00321662202449 0)
(-0.445038592225 0.00384277270312 0)
(-0.443913129802 0.00441011516859 0)
(-0.442702695338 0.00492787019525 0)
(-0.441416489769 0.00540430931468 0)
(-0.440062038884 0.00584683232814 0)
(-0.438645433705 0.00626204981752 0)
(-0.437171526111 0.00665587028844 0)
(-0.435644087983 0.00703358258254 0)
(-0.434065940144 0.00739993175005 0)
(-0.432439055872 0.00775918537561 0)
(-0.430764642941 0.0081151891278 0)
(-0.429043206489 0.00847141010203 0)
(-0.427274596132 0.00883096662116 0)
(-0.425458036549 0.00919664284399 0)
(-0.423592148561 0.00957088566259 0)
(-0.421674951038 0.00995578111357 0)
(-0.419703870622 0.0103530049055 0)
(-0.417675711448 0.0107637434318 0)
(-0.415586702808 0.0111885729383 0)
(-0.413432401152 0.0116272986377 0)
(-0.411207969194 0.0120787208173 0)
(-0.408907793761 0.0125403709204 0)
(-0.406526771409 0.0130081056883 0)
(-0.404058465031 0.0134758090978 0)
(-0.401500585458 0.0139347370209 0)
(-0.398845735758 0.0143736610477 0)
(-0.396104794008 0.0147777139283 0)
(-0.393261545922 0.0151308207998 0)
(-0.390375658418 0.0154124033525 0)
(-0.387365161071 0.0156081522688 0)
(-0.384471940428 0.0156968723028 0)
(-0.38117350735 0.0156991111533 0)
(-0.417592902492 -0.0179411403249 0)
(-0.42272270193 -0.0176357108148 0)
(-0.427424502739 -0.0163286802636 0)
(-0.431669237288 -0.0149379204135 0)
(-0.4353377099 -0.0132462378091 0)
(-0.438419971686 -0.0115149190816 0)
(-0.440924767054 -0.0097532058361 0)
(-0.442895397586 -0.00805607411128 0)
(-0.44438233391 -0.00644697323287 0)
(-0.44544195618 -0.00495658714948 0)
(-0.446127894091 -0.00359159320669 0)
(-0.446489929312 -0.00235509214828 0)
(-0.446572108688 -0.0012417854055 0)
(-0.44641290609 -0.00024396434058 0)
(-0.446045373445 0.000648572223565 0)
(-0.445497735021 0.00144658332184 0)
(-0.444793941579 0.00216102267593 0)
(-0.443954250796 0.00280240802204 0)
(-0.442995734943 0.00338063975991 0)
(-0.441932732795 0.00390483508333 0)
(-0.440777234232 0.00438330216134 0)
(-0.439539208421 0.00482354404896 0)
(-0.438226880541 0.00523230574372 0)
(-0.436846965107 0.00561563305788 0)
(-0.435404861927 0.00597894058989 0)
(-0.433904820316 0.0063270788028 0)
(-0.432350076162 0.00666439733251 0)
(-0.4307429656 0.00699480092015 0)
(-0.429085018706 0.00732179617826 0)
(-0.427377035402 0.00764852738902 0)
(-0.425619146992 0.0079777997307 0)
(-0.423810863195 0.00831208815877 0)
(-0.421951111833 0.00865352947435 0)
(-0.420038263402 0.00900389507918 0)
(-0.41807016636 0.00936453975195 0)
(-0.4160441513 0.00973632389523 0)
(-0.413957112641 0.0101194995041 0)
(-0.411805467035 0.0105135638471 0)
(-0.409585462074 0.0109170558625 0)
(-0.407292894963 0.0113273379322 0)
(-0.404924342244 0.0117402767665 0)
(-0.402475542726 0.012150040465 0)