/*--------------------------------*- C++ -*----------------------------------*\
| =========                 |                                                 |
| \\      /  F ield         | OpenFOAM: The Open Source CFD Toolbox           |
|  \\    /   O peration     | Version:  2.4.0                                 |
|   \\  /    A nd           | Web:      www.OpenFOAM.org                      |
|    \\/     M anipulation  |                                                 |
\*---------------------------------------------------------------------------*/
FoamFile
{
    version     2.0;
    format      ascii;
    class       volVectorField;
    location    "0.8";
    object      U;
}
// * * * * * * * * * * * * * * * * * * * * * * * * * * * * * * * * * * * * * //

dimensions      [0 1 -1 0 0 0 0];

internalField   nonuniform List<vector> 
400
(
(-7.12037807812e-08 1.00613961607e-16 0)
(-7.12037807084e-08 -1.73472347598e-17 0)
(-7.1203780691e-08 5.55111512313e-17 0)
(-7.12037806633e-08 1.35308431126e-16 0)
(-7.12037808055e-08 1.04083408559e-16 0)
(-7.12037808472e-08 1.04083408559e-16 0)
(-7.12037807257e-08 2.77555756156e-17 0)
(-7.12037807847e-08 -6.24500451352e-17 0)
(-7.12037809374e-08 -6.93889390391e-17 0)
(-7.12037809443e-08 4.85722573274e-17 0)
(-7.12037810657e-08 1.28369537222e-16 0)
(-7.120378092e-08 1.4224732503e-16 0)
(-7.12037807604e-08 1.63064006742e-16 0)
(-7.12037807014e-08 1.90819582357e-16 0)
(-7.1203780809e-08 1.70002900646e-16 0)
(-7.12037808645e-08 7.2858385991e-17 0)
(-7.12037808055e-08 9.36750677028e-17 0)
(-7.12037807986e-08 1.07552855511e-16 0)
(-7.1203780809e-08 1.38777878078e-16 0)
(-7.12037808541e-08 7.2858385991e-17 0)
(-7.69378986087e-07 4.02455846427e-16 0)
(-7.69378986017e-07 3.95516952523e-16 0)
(-7.69378985951e-07 3.1918911958e-16 0)
(-7.69378985955e-07 3.08780778724e-16 0)
(-7.69378986076e-07 2.81025203108e-16 0)
(-7.69378986184e-07 2.60208521397e-16 0)
(-7.69378986226e-07 2.53269627493e-16 0)
(-7.69378986108e-07 1.49186218934e-16 0)
(-7.69378986274e-07 1.31838984174e-16 0)
(-7.69378986319e-07 2.35922392733e-16 0)
(-7.69378986291e-07 2.32452945781e-16 0)
(-7.69378986319e-07 3.53883589099e-16 0)
(-7.69378986149e-07 4.96130914129e-16 0)
(-7.69378986146e-07 3.26128013484e-16 0)
(-7.69378986167e-07 3.85108611667e-16 0)
(-7.69378986066e-07 2.46330733589e-16 0)
(-7.69378986024e-07 2.87964097012e-16 0)
(-7.69378986038e-07 3.78169717763e-16 0)
(-7.69378986097e-07 2.98372437868e-16 0)
(-7.69378986264e-07 3.53883589099e-16 0)
(-4.42641848524e-06 6.27969898304e-16 0)
(-4.4264184853e-06 7.42461647718e-16 0)
(-4.42641848517e-06 5.06539254985e-16 0)
(-4.42641848511e-06 4.99600361081e-16 0)
(-4.42641848528e-06 4.7878367937e-16 0)
(-4.42641848532e-06 4.71844785466e-16 0)
(-4.42641848524e-06 3.74700270811e-16 0)
(-4.4264184852e-06 4.64905891562e-16 0)
(-4.42641848518e-06 4.7878367937e-16 0)
(-4.42641848541e-06 4.02455846427e-16 0)
(-4.42641848544e-06 5.23886489745e-16 0)
(-4.42641848546e-06 4.71844785466e-16 0)
(-4.42641848519e-06 5.03069808033e-16 0)
(-4.42641848506e-06 3.57353036051e-16 0)
(-4.42641848512e-06 4.23272528138e-16 0)
(-4.42641848509e-06 4.54497550706e-16 0)
(-4.42641848498e-06 4.99600361081e-16 0)
(-4.42641848492e-06 5.62050406217e-16 0)
(-4.42641848513e-06 5.20417042793e-16 0)
(-4.42641848522e-06 3.81639164715e-16 0)
(-1.37139784404e-05 6.45317133063e-16 0)
(-1.37139784403e-05 6.59194920871e-16 0)
(-1.37139784402e-05 5.51642065361e-16 0)
(-1.37139784401e-05 5.06539254985e-16 0)
(-1.37139784402e-05 4.09394740331e-16 0)
(-1.37139784402e-05 5.89805981832e-16 0)
(-1.37139784403e-05 4.75314232418e-16 0)
(-1.37139784402e-05 5.30825383649e-16 0)
(-1.37139784402e-05 5.72458747072e-16 0)
(-1.37139784403e-05 5.16947595841e-16 0)
(-1.37139784405e-05 5.55111512313e-16 0)
(-1.37139784405e-05 6.00214322688e-16 0)
(-1.37139784402e-05 4.71844785466e-16 0)
(-1.37139784401e-05 2.08166817117e-16 0)
(-1.37139784401e-05 2.94902990916e-16 0)
(-1.37139784401e-05 3.98986399475e-16 0)
(-1.37139784401e-05 5.48172618409e-16 0)
(-1.37139784401e-05 5.44703171457e-16 0)
(-1.37139784403e-05 4.96130914129e-16 0)
(-1.37139784404e-05 4.40619762898e-16 0)
(-3.04890725571e-05 7.11236625151e-16 0)
(-3.04890725569e-05 5.96744875736e-16 0)
(-3.04890725569e-05 4.64905891562e-16 0)
(-3.04890725568e-05 4.54497550706e-16 0)
(-3.04890725568e-05 5.10008701937e-16 0)
(-3.04890725568e-05 6.07153216592e-16 0)
(-3.04890725568e-05 5.23886489745e-16 0)
(-3.0489072557e-05 5.51642065361e-16 0)
(-3.04890725569e-05 5.89805981832e-16 0)
(-3.04890725569e-05 4.96130914129e-16 0)
(-3.0489072557e-05 5.03069808033e-16 0)
(-3.04890725571e-05 5.58580959265e-16 0)
(-3.04890725571e-05 5.20417042793e-16 0)
(-3.0489072557e-05 4.23272528138e-16 0)
(-3.04890725569e-05 5.48172618409e-16 0)
(-3.04890725569e-05 5.62050406217e-16 0)
(-3.04890725569e-05 6.00214322688e-16 0)
(-3.04890725567e-05 5.8633653488e-16 0)
(-3.04890725569e-05 5.58580959265e-16 0)
(-3.0489072557e-05 4.16333634234e-16 0)
(-5.19820117474e-05 6.62664367823e-16 0)
(-5.19820117474e-05 6.73072708679e-16 0)
(-5.19820117472e-05 4.7878367937e-16 0)
(-5.19820117471e-05 4.23272528138e-16 0)
(-5.19820117472e-05 7.21644966006e-16 0)
(-5.19820117471e-05 5.6898930012e-16 0)
(-5.19820117472e-05 5.27355936697e-16 0)
(-5.19820117473e-05 4.6143644461e-16 0)
(-5.19820117472e-05 4.85722573274e-16 0)
(-5.19820117473e-05 4.71844785466e-16 0)
(-5.19820117475e-05 5.72458747072e-16 0)
(-5.19820117475e-05 5.23886489745e-16 0)
(-5.19820117475e-05 6.17561557448e-16 0)
(-5.19820117475e-05 6.76542155631e-16 0)
(-5.19820117474e-05 7.49400541622e-16 0)
(-5.19820117474e-05 8.29197821517e-16 0)
(-5.19820117473e-05 7.38992200766e-16 0)
(-5.19820117473e-05 6.83481049535e-16 0)
(-5.19820117473e-05 5.58580959265e-16 0)
(-5.19820117473e-05 5.44703171457e-16 0)
(-6.27131223641e-05 7.38992200766e-16 0)
(-6.27131223641e-05 8.36136715421e-16 0)
(-6.27131223641e-05 6.97358837343e-16 0)
(-6.27131223639e-05 6.0368376964e-16 0)
(-6.27131223639e-05 7.94503351997e-16 0)
(-6.27131223641e-05 7.49400541622e-16 0)
(-6.27131223642e-05 6.00214322688e-16 0)
(-6.27131223642e-05 6.24500451352e-16 0)
(-6.27131223641e-05 6.3837823916e-16 0)
(-6.27131223642e-05 5.6898930012e-16 0)
(-6.27131223642e-05 6.10622663544e-16 0)
(-6.27131223641e-05 5.51642065361e-16 0)
(-6.27131223642e-05 5.62050406217e-16 0)
(-6.27131223643e-05 6.93889390391e-16 0)
(-6.27131223642e-05 7.18175519054e-16 0)
(-6.27131223641e-05 7.8062556419e-16 0)
(-6.2713122364e-05 8.08381139805e-16 0)
(-6.27131223639e-05 7.56339435526e-16 0)
(-6.2713122364e-05 7.25114412958e-16 0)
(-6.27131223642e-05 7.73686670286e-16 0)
(-2.0884747642e-05 8.98586760556e-16 0)
(-2.0884747642e-05 9.54097911787e-16 0)
(-2.08847476418e-05 8.50014503229e-16 0)
(-2.08847476418e-05 8.63892291037e-16 0)
(-2.08847476418e-05 7.04297731247e-16 0)
(-2.08847476419e-05 8.11850586757e-16 0)
(-2.0884747642e-05 8.18789480661e-16 0)
(-2.0884747642e-05 7.38992200766e-16 0)
(-2.0884747642e-05 6.76542155631e-16 0)
(-2.0884747642e-05 7.18175519054e-16 0)
(-2.0884747642e-05 6.31439345256e-16 0)
(-2.0884747642e-05 6.00214322688e-16 0)
(-2.08847476419e-05 6.10622663544e-16 0)
(-2.08847476419e-05 7.04297731247e-16 0)
(-2.08847476419e-05 8.67361737988e-16 0)
(-2.08847476419e-05 7.6327832943e-16 0)
(-2.08847476419e-05 8.18789480661e-16 0)
(-2.08847476418e-05 6.48786580015e-16 0)
(-2.08847476417e-05 8.18789480661e-16 0)
(-2.08847476418e-05 8.32667268469e-16 0)
(0.000160752374875 9.43689570931e-16 0)
(0.000160752374876 8.67361737988e-16 0)
(0.000160752374876 8.63892291037e-16 0)
(0.000160752374876 8.81239525796e-16 0)
(0.000160752374876 8.25728374565e-16 0)
(0.000160752374876 7.70217223334e-16 0)
(0.000160752374875 8.08381139805e-16 0)
(0.000160752374876 8.84708972748e-16 0)
(0.000160752374876 8.39606162373e-16 0)
(0.000160752374876 8.63892291037e-16 0)
(0.000160752374876 7.32053306862e-16 0)
(0.000160752374876 6.34908792208e-16 0)
(0.000160752374876 7.77156117238e-16 0)
(0.000160752374876 6.97358837343e-16 0)
(0.000160752374876 8.67361737988e-16 0)
(0.000160752374876 1.02695629778e-15 0)
(0.000160752374876 1.06512021425e-15 0)
(0.000160752374876 8.81239525796e-16 0)
(0.000160752374876 9.54097911787e-16 0)
(0.000160752374876 9.29811783124e-16 0)
(0.000637189767433 1.02001740387e-15 0)
(0.000637189767433 9.29811783124e-16 0)
(0.000637189767433 9.33281230076e-16 0)
(0.000637189767433 8.29197821517e-16 0)
(0.000637189767433 8.74300631892e-16 0)
(0.000637189767433 6.80011602583e-16 0)
(0.000637189767433 7.97972798949e-16 0)
(0.000637189767433 8.91647866652e-16 0)
(0.000637189767433 8.46545056277e-16 0)
(0.000637189767433 8.84708972748e-16 0)
(0.000637189767433 7.70217223334e-16 0)
(0.000637189767433 8.08381139805e-16 0)
(0.000637189767433 9.50628464835e-16 0)
(0.000637189767433 8.81239525796e-16 0)
(0.000637189767433 9.85322934355e-16 0)
(0.000637189767433 1.04083408559e-15 0)
(0.000637189767433 1.07205910815e-15 0)
(0.000637189767433 1.08940634291e-15 0)
(0.000637189767433 1.08246744901e-15 0)
(0.000637189767433 9.85322934355e-16 0)
(0.00165107608933 9.74914593499e-16 0)
(0.00165107608933 1.08940634291e-15 0)
(0.00165107608933 9.85322934355e-16 0)
(0.00165107608933 9.12464548364e-16 0)
(0.00165107608933 9.57567358739e-16 0)
(0.00165107608933 8.7083118494e-16 0)
(0.00165107608933 8.01442245901e-16 0)
(0.00165107608933 8.15320033709e-16 0)
(0.00165107608933 7.94503351997e-16 0)
(0.00165107608933 8.43075609325e-16 0)
(0.00165107608933 6.93889390391e-16 0)
(0.00165107608933 7.32053306862e-16 0)
(0.00165107608933 8.43075609325e-16 0)
(0.00165107608933 9.26342336172e-16 0)
(0.00165107608933 1.00613961607e-15 0)
(0.00165107608933 1.01307850997e-15 0)
(0.00165107608933 9.4022012398e-16 0)
(0.00165107608933 9.15933995316e-16 0)
(0.00165107608933 9.95731275211e-16 0)
(0.00165107608933 8.56953397133e-16 0)
(0.00354179283155 1.0685896612e-15 0)
(0.00354179283155 1.12410081243e-15 0)
(0.00354179283155 9.36750677028e-16 0)
(0.00354179283155 8.63892291037e-16 0)
(0.00354179283155 9.43689570931e-16 0)
(0.00354179283155 8.77770078844e-16 0)
(0.00354179283155 7.4593109467e-16 0)
(0.00354179283155 6.55725473919e-16 0)
(0.00354179283155 6.86950496487e-16 0)
(0.00354179283155 6.66133814775e-16 0)
(0.00354179283156 5.48172618409e-16 0)
(0.00354179283155 5.41233724505e-16 0)
(0.00354179283155 6.00214322688e-16 0)
(0.00354179283155 9.64506252643e-16 0)
(0.00354179283156 8.881784197e-16 0)
(0.00354179283156 7.87564458094e-16 0)
(0.00354179283156 8.25728374565e-16 0)
(0.00354179283156 8.7083118494e-16 0)
(0.00354179283155 8.67361737988e-16 0)
(0.00354179283155 8.01442245901e-16 0)
(0.00673407850094 8.60422844085e-16 0)
(0.00673407850094 8.63892291037e-16 0)
(0.00673407850094 7.8062556419e-16 0)
(0.00673407850094 6.76542155631e-16 0)
(0.00673407850094 7.84095011142e-16 0)
(0.00673407850094 8.22258927613e-16 0)
(0.00673407850094 6.90419943439e-16 0)
(0.00673407850094 7.25114412958e-16 0)
(0.00673407850094 6.24500451352e-16 0)
(0.00673407850094 5.96744875736e-16 0)
(0.00673407850094 5.16947595841e-16 0)
(0.00673407850094 4.68375338514e-16 0)
(0.00673407850094 5.96744875736e-16 0)
(0.00673407850094 7.07767178199e-16 0)
(0.00673407850094 8.43075609325e-16 0)
(0.00673407850094 5.6898930012e-16 0)
(0.00673407850094 6.69603261727e-16 0)
(0.00673407850094 6.10622663544e-16 0)
(0.00673407850094 7.11236625151e-16 0)
(0.00673407850094 6.69603261727e-16 0)
(0.0116987463041 5.8633653488e-16 0)
(0.0116987463041 6.3837823916e-16 0)
(0.0116987463041 4.82253126322e-16 0)
(0.0116987463041 5.75928194024e-16 0)
(0.0116987463041 5.51642065361e-16 0)
(0.0116987463041 5.8633653488e-16 0)
(0.0116987463041 6.24500451352e-16 0)
(0.0116987463041 5.37764277553e-16 0)
(0.0116987463041 3.95516952523e-16 0)
(0.0116987463041 4.75314232418e-16 0)
(0.0116987463041 5.51642065361e-16 0)
(0.0116987463041 4.54497550706e-16 0)
(0.0116987463041 4.92661467177e-16 0)
(0.0116987463041 5.34294830601e-16 0)
(0.0116987463041 5.82867087928e-16 0)
(0.0116987463041 4.37150315946e-16 0)
(0.0116987463041 4.09394740331e-16 0)
(0.0116987463041 5.10008701937e-16 0)
(0.0116987463041 5.55111512313e-16 0)
(0.0116987463041 6.14092110496e-16 0)
(0.0188841810165 5.06539254985e-16 0)
(0.0188841810165 4.09394740331e-16 0)
(0.0188841810165 4.40619762898e-16 0)
(0.0188841810165 4.23272528138e-16 0)
(0.0188841810165 2.91433543964e-16 0)
(0.0188841810165 2.94902990916e-16 0)
(0.0188841810165 3.85108611667e-16 0)
(0.0188841810165 2.91433543964e-16 0)
(0.0188841810165 2.63677968348e-16 0)
(0.0188841810165 2.49800180541e-16 0)
(0.0188841810165 1.94289029309e-16 0)
(0.0188841810165 2.70616862252e-16 0)
(0.0188841810165 3.3653635434e-16 0)
(0.0188841810165 2.28983498829e-16 0)
(0.0188841810165 3.57353036051e-16 0)
(0.0188841810165 3.33066907388e-16 0)
(0.0188841810165 2.53269627493e-16 0)
(0.0188841810165 3.29597460436e-16 0)
(0.0188841810165 4.54497550706e-16 0)
(0.0188841810165 4.7878367937e-16 0)
(0.0286265089663 4.6143644461e-16 0)
(0.0286265089663 4.57966997658e-16 0)
(0.0286265089663 4.71844785466e-16 0)
(0.0286265089663 4.47558656802e-16 0)
(0.0286265089663 2.32452945781e-16 0)
(0.0286265089663 3.26128013484e-16 0)
(0.0286265089663 2.11636264069e-16 0)
(0.0286265089663 3.85108611667e-16 0)
(0.0286265089663 2.8449465006e-16 0)
(0.0286265089663 2.74086309204e-16 0)
(0.0286265089663 2.15105711021e-16 0)
(0.0286265089663 1.66533453694e-16 0)
(0.0286265089663 1.63064006742e-16 0)
(0.0286265089663 1.07552855511e-16 0)
(0.0286265089663 1.90819582357e-16 0)
(0.0286265089663 9.71445146547e-17 0)
(0.0286265089663 1.52655665886e-16 0)
(0.0286265089663 1.17961196366e-16 0)
(0.0286265089663 3.08780778724e-16 0)
(0.0286265089663 4.99600361081e-16 0)
(0.041055832083 3.57353036051e-16 0)
(0.041055832083 3.81639164715e-16 0)
(0.041055832083 4.68375338514e-16 0)
(0.041055832083 4.47558656802e-16 0)
(0.041055832083 3.74700270811e-16 0)
(0.041055832083 3.64291929955e-16 0)
(0.041055832083 3.33066907388e-16 0)
(0.041055832083 4.05925293379e-16 0)
(0.041055832083 3.3653635434e-16 0)
(0.041055832083 3.22658566532e-16 0)
(0.041055832083 3.1918911958e-16 0)
(0.041055832083 1.90819582357e-16 0)
(0.041055832083 1.7694179455e-16 0)
(0.041055832083 1.31838984174e-16 0)
(0.041055832083 -5.55111512313e-17 0)
(0.041055832083 1.38777878078e-17 0)
(0.041055832083 1.90819582357e-16 0)
(0.041055832083 1.5959455979e-16 0)
(0.041055832083 3.08780778724e-16 0)
(0.041055832083 4.71844785466e-16 0)
(0.056022323899 2.49800180541e-16 0)
(0.056022323899 2.35922392733e-16 0)
(0.056022323899 4.71844785466e-16 0)
(0.056022323899 2.70616862252e-16 0)
(0.056022323899 4.02455846427e-16 0)
(0.056022323899 4.23272528138e-16 0)
(0.056022323899 4.16333634234e-16 0)
(0.056022323899 4.02455846427e-16 0)
(0.056022323899 2.91433543964e-16 0)
(0.056022323899 4.4408920985e-16 0)
(0.056022323899 2.49800180541e-16 0)
(0.056022323899 2.08166817117e-16 0)
(0.056022323899 1.45716771982e-16 0)
(0.056022323899 1.45716771982e-16 0)
(0.056022323899 1.45716771982e-16 0)
(0.056022323899 6.93889390391e-17 0)
(0.056022323899 7.6327832943e-17 0)
(0.056022323899 1.11022302463e-16 0)
(0.056022323899 1.5959455979e-16 0)
(0.056022323899 2.08166817117e-16 0)
(0.0730568881619 2.49800180541e-16 0)
(0.0730568881619 2.56739074445e-16 0)
(0.0730568881619 3.1918911958e-16 0)
(0.0730568881619 2.35922392733e-16 0)
(0.0730568881619 3.74700270811e-16 0)
(0.0730568881619 2.8449465006e-16 0)
(0.0730568881619 1.94289029309e-16 0)
(0.0730568881619 2.77555756156e-16 0)
(0.0730568881619 2.22044604925e-16 0)
(0.0730568881619 3.1918911958e-16 0)
(0.0730568881619 3.40005801291e-16 0)
(0.0730568881619 2.70616862252e-16 0)
(0.0730568881619 6.93889390391e-18 0)
(0.0730568881619 1.66533453694e-16 0)
(0.0730568881619 1.87350135406e-16 0)
(0.0730568881619 1.5959455979e-16 0)
(0.0730568881619 5.55111512313e-17 0)
(0.0730568881619 4.16333634234e-17 0)
(0.0730568881619 1.38777878078e-17 0)
(0.0730568881619 9.71445146547e-17 0)
(0.091494293559 2.15105711021e-16 0)
(0.091494293559 1.52655665886e-16 0)
(0.091494293559 2.15105711021e-16 0)
(0.091494293559 1.04083408559e-16 0)
(0.091494293559 2.15105711021e-16 0)
(0.091494293559 8.32667268469e-17 0)
(0.091494293559 6.24500451352e-17 0)
(0.091494293559 2.77555756156e-17 0)
(0.091494293559 6.93889390391e-17 0)
(0.091494293559 1.17961196366e-16 0)
(0.091494293559 1.5959455979e-16 0)
(0.091494293559 8.32667268469e-17 0)
(0.091494293559 1.38777878078e-17 0)
(0.091494293559 -7.6327832943e-17 0)
(0.091494293559 -6.93889390391e-18 0)
(0.091494293559 3.46944695195e-17 0)
(0.091494293559 -1.38777878078e-17 0)
(0.091494293559 -3.46944695195e-17 0)
(0.091494293559 -2.77555756156e-17 0)
(0.091494293559 4.16333634234e-17 0)
)
;

boundaryField
{
    top
    {
        type            fixedValue;
        value           uniform (0.1 0 0);
    }
    bottom
    {
        type            fixedValue;
        value           uniform (0 0 0);
    }
    left
    {
        type            cyclic;
    }
    right
    {
        type            cyclic;
    }
    frontAndBack
    {
        type            empty;
    }
}


// ************************************************************************* //
