/*--------------------------------*- C++ -*----------------------------------*\
| =========                 |                                                 |
| \\      /  F ield         | OpenFOAM: The Open Source CFD Toolbox           |
|  \\    /   O peration     | Version:  2.4.0                                 |
|   \\  /    A nd           | Web:      www.OpenFOAM.org                      |
|    \\/     M anipulation  |                                                 |
\*---------------------------------------------------------------------------*/
FoamFile
{
    version     2.0;
    format      ascii;
    class       volScalarField;
    location    "0.5";
    object      rho;
}
// * * * * * * * * * * * * * * * * * * * * * * * * * * * * * * * * * * * * * //

dimensions      [1 -3 0 0 0 0 0];

internalField   nonuniform List<scalar> 
100
(
3.82815611442e+163
1.85601780006e+170
-2.05262830562e+172
-4.59227808267e+177
4.43280737344e+179
6.33943869498e+183
-8.23410059544e+184
7.32176458219e+190
-6.94109240744e+190
-7.99672261159e+185
-6.66648646379e+161
1.57799796372e+162
-2.49799355864e+170
8.8834139786e+171
4.33628071669e+178
7.89868303532e+176
2.79950780872e+183
-1.45200328419e+184
-1.81776874248e+184
1.15766389321e+184
-6.12304351355e+155
-1.84695573793e+162
2.49911073797e+163
1.82518220848e+169
-2.20181032201e+171
-1.81120461186e+175
5.61229019088e+176
-1.49665057755e+182
1.41235664581e+182
2.11699966706e+177
8.41322260416e+154
1.43968372473e+155
-1.45030001585e+161
-3.72346517831e+163
-1.66430208717e+170
-3.93352730042e+168
-8.97869736746e+174
4.45523074731e+175
5.12536631636e+175
-3.35639112995e+175
-4.78280004927e+147
1.14791898711e+154
-4.12408640661e+155
2.03990099219e+161
1.42814135753e+163
8.49880711173e+166
-2.04844414664e+168
4.33662489079e+173
-4.09497700832e+173
-7.78415386953e+168
-4.96431916702e+147
1.7339239696e+148
-3.27587939761e+153
2.0363116993e+155
8.54894709666e+161
2.41891995624e+160
3.32356620778e+166
-1.74767330597e+167
-1.91929584339e+167
1.29203620659e+167
-6.40133051567e+140
1.0979349585e+146
3.19805571633e+147
-4.13821179326e+153
-1.16502571902e+155
-4.95486527837e+158
1.05476256308e+160
-1.66047247541e+165
1.56779806629e+165
3.83261133418e+160
-3.37847805342e+139
-3.39914289519e+140
5.8848724121e+145
-1.22860380778e+147
-5.82420281173e+153
-1.92075902934e+152
-1.68335559733e+158
9.25990019381e+158
9.69009171675e+158
-6.70010423752e+158
5.46538553682e+133
-1.19812345789e+139
-7.93371132856e+139
6.01885328127e+145
1.25003861655e+147
3.78685451855e+150
-7.19151218784e+151
8.57061533309e+156
-8.09229182554e+156
-2.49305820932e+152
1.56473598636e+132
8.39116468849e+132
-2.83562970167e+138
5.9611661745e+138
5.36473557211e+145
1.90123753996e+144
1.13291709509e+150
-6.56658909079e+150
-6.42231896083e+150
4.60381972149e+150
)
;

boundaryField
{
    top
    {
        type            bounceBack;
        value           uniform 1;
    }
    bottom
    {
        type            bounceBack;
        value           nonuniform 0();
    }
    left
    {
        type            cyclic;
    }
    right
    {
        type            cyclic;
    }
    frontAndBack
    {
        type            empty;
    }
    procBoundary3to1
    {
        type            processor;
        value           nonuniform List<scalar> 10(-3.07586706438e+161 -3.28294088224e+163 -4.78025239634e+169 3.71388439571e+171 7.9304020285e+178 1.83767508715e+177 8.33749993878e+183 -2.99520877545e+184 -3.35990966321e+184 2.05916557591e+184);
    }
    procBoundary3to2
    {
        type            processor;
        value           nonuniform List<scalar> 10(2.30147456823e+155 -5.1532445609e+149 -4.72033042441e+147 1.87493410399e+142 1.46728052481e+140 -1.12040099115e+135 -1.46200868337e+132 2.26759304638e+128 2.30349177663e+127 -1.10364506859e+120);
    }
    procBoundary3to2throughright
    {
        type            processorCyclic;
        value           nonuniform List<scalar> 10(-7.40987466751e+177 7.62687247066e+170 2.71861635222e+169 -4.79500033606e+162 -1.41918583341e+161 3.58896858808e+154 9.7621233555e+152 -3.65280469089e+146 -9.09207644652e+144 4.98439770482e+138);
    }
}


// ************************************************************************* //
