/*--------------------------------*- C++ -*----------------------------------*\
| =========                 |                                                 |
| \\      /  F ield         | OpenFOAM: The Open Source CFD Toolbox           |
|  \\    /   O peration     | Version:  2.4.0                                 |
|   \\  /    A nd           | Web:      www.OpenFOAM.org                      |
|    \\/     M anipulation  |                                                 |
\*---------------------------------------------------------------------------*/
FoamFile
{
    version     2.0;
    format      ascii;
    class       volVectorField;
    location    "0.5";
    object      U;
}
// * * * * * * * * * * * * * * * * * * * * * * * * * * * * * * * * * * * * * //

dimensions      [0 1 -1 0 0 0 0];

internalField   nonuniform List<vector> 
100
(
(-1.72899249054 0.598465170234 0)
(-1.51835549166 -0.431502725729 0)
(-0.682984109974 -0.192823567441 -0)
(-3.69081048655 -2.79125503866 -0)
(0.277356338031 1.18259830306 0)
(-0.601497655858 1.00124405975 0)
(0.165779672939 1.96140211138 -0)
(0.0621895995432 1.12255435901 0)
(0.0701409872813 1.11919231475 -0)
(0.0501406294656 1.12243151527 -0)
(-0.665546447368 2.79363839727 -0)
(-1.16479081976 12.0281187607 0)
(0.47434870987 0.0331474662746 -0)
(0.570986498824 1.05496176289 0)
(0.0566669645924 1.16204204029 0)
(-0.40077781781 1.26862398409 0)
(-0.0578314472816 1.2514230707 0)
(-0.231847877649 1.1879467598 -0)
(0.0680810874604 1.1565775942 -0)
(0.0811432126032 1.16059027849 0)
(-1.15521016439 1.30027019313 -0)
(-1.50488657293 0.0314235336958 -0)
(2.76496803017 1.19661984255 0)
(7.47765759749 -0.0840412684348 0)
(0.0442567921606 1.1994105944 -0)
(-0.516158943854 1.2380203384 -0)
(-0.0391997270575 1.12782794787 0)
(0.00967049874445 1.16271635537 -0)
(0.0109075254699 1.16320529921 0)
(0.0356831001488 1.15711991811 0)
(-0.951053728822 0.689197885952 0)
(-18.3757223335 -20.2775829963 0)
(28.3225994911 1.78191001279 -0)
(0.350200790051 1.11430881452 -0)
(0.0128761294225 1.15748162436 -0)
(-0.364491127705 1.19043222595 -0)
(0.0201398098289 1.14201093107 -0)
(-0.0761252991919 1.15791235549 0)
(0.0492072616209 1.15542879054 0)
(0.0262945953936 1.15900133828 -0)
(-58.3108959136 22.691496709 -0)
(-9.46207896328 -2.34671150289 0)
(0.718736487849 1.11339390505 -0)
(-1.79327827508 1.71850302798 0)
(0.00779804146131 1.18310415377 0)
(-0.370877880572 1.19657223853 0)
(-0.082297963811 1.16411838637 -0)
(0.00205592402139 1.15734451892 0)
(0.00231724199501 1.15728440619 -0)
(0.0389816913675 1.15436562149 -0)
(-1.87822616321 0.806624460459 -0)
(-0.770419383797 1.29634972112 0)
(-4.60707335047 0.658040887909 -0)
(0.446372920219 1.076227411 0)
(0.00339840251118 1.1580246802 0)
(-0.390459059389 1.1858462512 0)
(0.0389769357408 1.1542073288 0)
(-0.0534626059532 1.16056815647 -0)
(0.0560800305905 1.15658019666 -0)
(0.0141457293259 1.15920842487 0)
(-0.507531468764 1.20527756189 -0)
(3.26841024699 -1.88991590755 0)
(0.645406326426 1.31052105011 0)
(-1.13426575909 1.30435232139 -0)
(0.000838120564073 1.17883659921 -0)
(-0.303384790572 1.19689086662 -0)
(-0.0898683956111 1.16171218813 0)
(0.000445913501774 1.15801622904 -0)
(0.000502071333733 1.15802432124 0)
(0.0427592304366 1.15442834322 0)
(-0.632124681761 1.0749577812 -0)
(-0.0701857026155 1.17550036655 -0)
(-2.39016022852 0.826001465922 0)
(0.788851199211 1.00989774215 -0)
(0.00136469654567 1.15793611651 -0)
(-0.357102941928 1.17983974433 -0)
(0.0438956197366 1.15249357196 -0)
(-0.051418394183 1.15982051397 0)
(0.0621843151678 1.15672090394 0)
(0.0114480112503 1.15918559591 -0)
(-0.182050371539 1.18506858499 0)
(-0.437558803124 1.09540905889 -0)
(0.547117963676 1.53341098451 -0)
(-0.787882109989 1.25150549379 0)
(-0.000508293796661 1.17494354856 0)
(-0.260211717759 1.19175935146 0)
(-0.0928035411484 1.16243072918 -0)
(9.72114038242e-05 1.15793140683 0)
(0.000109145688044 1.15793105361 -0)
(0.0462982696283 1.15391373397 -0)
(-0.278647019933 1.14423876233 0)
(-0.138440702989 0.873542089738 0)
(-0.516183650764 1.10402707873 -0)
(1.74027941851 1.07370429523 0)
(0.000842697380672 1.15794076558 0)
(-0.30046114536 1.19304354578 0)
(0.0400683458287 1.15465927412 0)
(-0.0382176640736 1.14865052392 -0)
(0.051921661713 1.16734705022 -0)
(0.00954732260167 1.15870973995 0)
)
;

boundaryField
{
    top
    {
        type            fixedValue;
        value           uniform (0.1 0 0);
    }
    bottom
    {
        type            fixedValue;
        value           nonuniform 0();
    }
    left
    {
        type            cyclic;
    }
    right
    {
        type            cyclic;
    }
    frontAndBack
    {
        type            empty;
    }
    procBoundary3to1
    {
        type            processor;
        value           nonuniform List<vector> 10((-1.1025588316 3.82371132755 -0) (0.211438482388 -0.0473177978771 -0) (-2.45665887669 -0.776830143092 -0) (-2.13837338684 -3.4068115384 0) (0.267452580435 1.1279258226 0) (-0.381284190273 1.02742637256 0) (-0.427360550747 0.810636517016 0) (-1.05181097044 1.02218053827 -0) (0.220937110794 1.13216088413 -0) (0.318941412636 1.14381084681 0));
    }
    procBoundary3to2
    {
        type            processor;
        value           nonuniform List<vector> 10((1.75537016415 1.15565942696 0) (1.26539906193 1.10510765006 -0) (0.229170013933 1.11364878079 -0) (0.428906419654 1.04517761481 0) (0.256652435307 1.19306580699 0) (0.138482758067 1.034904691 -0) (6.63083725828 2.34209410423 -0) (4.07906153993 1.53789406351 0) (-0.81329759781 1.07493357118 0) (0.00682231167364 1.15122470287 -0));
    }
    procBoundary3to2throughright
    {
        type            processorCyclic;
        value           nonuniform List<vector> 10((0.0874444554422 1.12182805241 -0) (0.171324761088 1.24148722306 0) (0.0198612790365 1.16318070941 0) (0.0284677405071 1.16246693616 -0) (0.00957397617878 1.15773420027 -0) (0.00104343883908 1.17166728981 0) (0.00732296145455 1.15842848314 0) (-0.00391575374326 1.1688032876 -0) (0.00681080339698 1.15834391726 -0) (-0.0044077183944 1.1380621671 0));
    }
}


// ************************************************************************* //
