/*--------------------------------*- C++ -*----------------------------------*\
| =========                 |                                                 |
| \\      /  F ield         | OpenFOAM: The Open Source CFD Toolbox           |
|  \\    /   O peration     | Version:  2.4.0                                 |
|   \\  /    A nd           | Web:      www.OpenFOAM.org                      |
|    \\/     M anipulation  |                                                 |
\*---------------------------------------------------------------------------*/
FoamFile
{
    version     2.0;
    format      ascii;
    class       volVectorField;
    location    "0.6";
    object      U;
}
// * * * * * * * * * * * * * * * * * * * * * * * * * * * * * * * * * * * * * //

dimensions      [0 1 -1 0 0 0 0];

internalField   nonuniform List<vector> 
400
(
(3.527141096e-07 3.46944695195e-18 0)
(3.52714109465e-07 -2.77555756156e-17 0)
(3.52714109354e-07 3.46944695195e-17 0)
(3.52714109385e-07 -2.08166817117e-17 0)
(3.52714109461e-07 1.73472347598e-17 0)
(3.52714109395e-07 -2.42861286637e-17 0)
(3.52714109426e-07 6.59194920871e-17 0)
(3.52714109534e-07 6.24500451352e-17 0)
(3.52714109544e-07 7.97972798949e-17 0)
(3.52714109482e-07 2.77555756156e-17 0)
(3.52714109607e-07 1.07552855511e-16 0)
(3.52714109586e-07 -2.42861286637e-17 0)
(3.52714109499e-07 -3.12250225676e-17 0)
(3.52714109524e-07 -2.42861286637e-17 0)
(3.52714109485e-07 3.46944695195e-18 0)
(3.52714109517e-07 -2.08166817117e-17 0)
(3.52714109482e-07 3.46944695195e-18 0)
(3.52714109506e-07 7.6327832943e-17 0)
(3.5271410959e-07 3.46944695195e-17 0)
(3.52714109642e-07 -4.51028103754e-17 0)
(1.17235707684e-06 -7.97972798949e-17 0)
(1.1723570767e-06 -7.6327832943e-17 0)
(1.17235707655e-06 -5.55111512313e-17 0)
(1.17235707647e-06 6.59194920871e-17 0)
(1.17235707659e-06 5.55111512313e-17 0)
(1.17235707667e-06 6.24500451352e-17 0)
(1.17235707677e-06 1.2490009027e-16 0)
(1.1723570768e-06 1.00613961607e-16 0)
(1.1723570766e-06 -6.93889390391e-18 0)
(1.17235707669e-06 5.55111512313e-17 0)
(1.1723570768e-06 2.08166817117e-17 0)
(1.1723570768e-06 -2.77555756156e-17 0)
(1.1723570768e-06 -1.87350135406e-16 0)
(1.17235707681e-06 -4.85722573274e-17 0)
(1.1723570768e-06 -1.04083408559e-16 0)
(1.17235707667e-06 -1.31838984174e-16 0)
(1.17235707663e-06 -8.32667268469e-17 0)
(1.17235707673e-06 -1.52655665886e-16 0)
(1.17235707676e-06 -2.04697370165e-16 0)
(1.17235707682e-06 -8.67361737988e-17 0)
(1.93608346556e-06 -2.63677968348e-16 0)
(1.93608346569e-06 -2.46330733589e-16 0)
(1.93608346565e-06 -1.07552855511e-16 0)
(1.93608346562e-06 3.46944695195e-18 0)
(1.93608346553e-06 4.85722573274e-17 0)
(1.9360834656e-06 9.71445146547e-17 0)
(1.93608346558e-06 1.83880688454e-16 0)
(1.93608346548e-06 -4.16333634234e-17 0)
(1.93608346548e-06 -2.04697370165e-16 0)
(1.93608346556e-06 -7.2858385991e-17 0)
(1.93608346558e-06 -1.21430643318e-16 0)
(1.93608346568e-06 -2.15105711021e-16 0)
(1.93608346584e-06 -2.81025203108e-16 0)
(1.9360834658e-06 -1.80411241502e-16 0)
(1.93608346574e-06 -2.18575157973e-16 0)
(1.93608346572e-06 -3.1918911958e-16 0)
(1.93608346566e-06 -2.49800180541e-16 0)
(1.93608346574e-06 -3.71230823859e-16 0)
(1.93608346572e-06 -3.78169717763e-16 0)
(1.93608346565e-06 -3.92047505571e-16 0)
(1.42472527857e-06 -2.671474153e-16 0)
(1.42472527882e-06 -2.28983498829e-16 0)
(1.4247252788e-06 -1.31838984174e-16 0)
(1.42472527867e-06 -1.97758476261e-16 0)
(1.42472527867e-06 -9.71445146547e-17 0)
(1.42472527852e-06 1.73472347598e-17 0)
(1.42472527855e-06 -2.77555756156e-17 0)
(1.4247252785e-06 -1.66533453694e-16 0)
(1.42472527844e-06 -2.04697370165e-16 0)
(1.4247252785e-06 -1.56125112838e-16 0)
(1.4247252784e-06 -2.32452945781e-16 0)
(1.42472527855e-06 -2.60208521397e-16 0)
(1.42472527868e-06 -3.43475248243e-16 0)
(1.4247252786e-06 -3.0184188482e-16 0)
(1.42472527863e-06 -1.38777878078e-16 0)
(1.42472527876e-06 -4.30211422042e-16 0)
(1.42472527875e-06 -3.74700270811e-16 0)
(1.42472527878e-06 -3.78169717763e-16 0)
(1.42472527866e-06 -4.85722573274e-16 0)
(1.4247252786e-06 -4.85722573274e-16 0)
(-3.61826204893e-06 -1.04083408559e-16 0)
(-3.6182620488e-06 -1.52655665886e-16 0)
(-3.61826204873e-06 -2.32452945781e-16 0)
(-3.61826204882e-06 -1.97758476261e-16 0)
(-3.61826204878e-06 -1.28369537222e-16 0)
(-3.61826204885e-06 -1.87350135406e-16 0)
(-3.61826204883e-06 -2.08166817117e-16 0)
(-3.61826204873e-06 -2.22044604925e-16 0)
(-3.61826204894e-06 -2.15105711021e-16 0)
(-3.618262049e-06 -1.94289029309e-16 0)
(-3.61826204901e-06 -1.31838984174e-16 0)
(-3.61826204892e-06 -1.38777878078e-16 0)
(-3.61826204886e-06 -3.67761376907e-16 0)
(-3.61826204878e-06 -3.57353036051e-16 0)
(-3.61826204892e-06 -1.70002900646e-16 0)
(-3.61826204888e-06 -1.90819582357e-16 0)
(-3.61826204871e-06 -3.15719672628e-16 0)
(-3.61826204885e-06 -4.2674197509e-16 0)
(-3.61826204907e-06 -4.75314232418e-16 0)
(-3.61826204903e-06 -4.37150315946e-16 0)
(-1.87781072045e-05 4.51028103754e-17 0)
(-1.87781072044e-05 -1.28369537222e-16 0)
(-1.87781072045e-05 -2.35922392733e-16 0)
(-1.87781072045e-05 -2.87964097012e-16 0)
(-1.87781072046e-05 -2.53269627493e-16 0)
(-1.87781072046e-05 -3.3653635434e-16 0)
(-1.87781072045e-05 -2.94902990916e-16 0)
(-1.87781072045e-05 -3.22658566532e-16 0)
(-1.87781072046e-05 -2.49800180541e-16 0)
(-1.87781072046e-05 -2.39391839685e-16 0)
(-1.87781072047e-05 -2.42861286637e-16 0)
(-1.87781072048e-05 -1.49186218934e-16 0)
(-1.87781072048e-05 -1.90819582357e-16 0)
(-1.87781072046e-05 -3.81639164715e-16 0)
(-1.87781072046e-05 -3.29597460436e-16 0)
(-1.87781072046e-05 -2.42861286637e-16 0)
(-1.87781072046e-05 -3.40005801291e-16 0)
(-1.87781072047e-05 -3.71230823859e-16 0)
(-1.87781072048e-05 -2.87964097012e-16 0)
(-1.87781072047e-05 -2.49800180541e-16 0)
(-4.97358214261e-05 -4.85722573274e-17 0)
(-4.97358214261e-05 -2.18575157973e-16 0)
(-4.97358214262e-05 -2.18575157973e-16 0)
(-4.97358214263e-05 -2.42861286637e-16 0)
(-4.97358214263e-05 -3.81639164715e-16 0)
(-4.97358214263e-05 -2.91433543964e-16 0)
(-4.97358214262e-05 -4.68375338514e-16 0)
(-4.97358214263e-05 -3.50414142147e-16 0)
(-4.97358214264e-05 -3.40005801291e-16 0)
(-4.97358214264e-05 -3.88578058619e-16 0)
(-4.97358214264e-05 -4.05925293379e-16 0)
(-4.97358214263e-05 -4.09394740331e-16 0)
(-4.97358214263e-05 -3.26128013484e-16 0)
(-4.97358214264e-05 -2.91433543964e-16 0)
(-4.97358214262e-05 -2.63677968348e-16 0)
(-4.97358214262e-05 -3.67761376907e-16 0)
(-4.97358214262e-05 -3.53883589099e-16 0)
(-4.97358214263e-05 -2.01227923213e-16 0)
(-4.97358214263e-05 -2.22044604925e-16 0)
(-4.97358214262e-05 -1.7694179455e-16 0)
(-9.42412953354e-05 -1.90819582357e-16 0)
(-9.42412953354e-05 -3.64291929955e-16 0)
(-9.42412953354e-05 -2.87964097012e-16 0)
(-9.42412953356e-05 -2.671474153e-16 0)
(-9.42412953357e-05 -3.3653635434e-16 0)
(-9.42412953357e-05 -2.49800180541e-16 0)
(-9.42412953356e-05 -2.671474153e-16 0)
(-9.42412953354e-05 -3.15719672628e-16 0)
(-9.42412953356e-05 -3.05311331772e-16 0)
(-9.42412953358e-05 -4.30211422042e-16 0)
(-9.42412953359e-05 -4.40619762898e-16 0)
(-9.42412953358e-05 -4.12864187283e-16 0)
(-9.42412953357e-05 -5.13478148889e-16 0)
(-9.42412953356e-05 -2.74086309204e-16 0)
(-9.42412953358e-05 -2.77555756156e-16 0)
(-9.42412953357e-05 -4.16333634234e-16 0)
(-9.42412953357e-05 -3.53883589099e-16 0)
(-9.42412953357e-05 -1.28369537222e-16 0)
(-9.42412953356e-05 -1.07552855511e-16 0)
(-9.42412953355e-05 -2.87964097012e-16 0)
(-0.000124366107183 -3.92047505571e-16 0)
(-0.000124366107183 -4.2674197509e-16 0)
(-0.000124366107183 -4.02455846427e-16 0)
(-0.000124366107183 -3.57353036051e-16 0)
(-0.000124366107183 -2.94902990916e-16 0)
(-0.000124366107183 -3.67761376907e-16 0)
(-0.000124366107183 -3.29597460436e-16 0)
(-0.000124366107183 -3.98986399475e-16 0)
(-0.000124366107183 -4.05925293379e-16 0)
(-0.000124366107183 -4.92661467177e-16 0)
(-0.000124366107183 -4.19803081186e-16 0)
(-0.000124366107183 -5.16947595841e-16 0)
(-0.000124366107183 -6.14092110496e-16 0)
(-0.000124366107183 -5.93275428784e-16 0)
(-0.000124366107183 -5.23886489745e-16 0)
(-0.000124366107183 -4.16333634234e-16 0)
(-0.000124366107183 -4.09394740331e-16 0)
(-0.000124366107183 -2.70616862252e-16 0)
(-0.000124366107183 -2.15105711021e-16 0)
(-0.000124366107183 -3.0184188482e-16 0)
(-5.64618229929e-05 -5.27355936697e-16 0)
(-5.64618229928e-05 -4.71844785466e-16 0)
(-5.64618229929e-05 -4.51028103754e-16 0)
(-5.64618229931e-05 -3.78169717763e-16 0)
(-5.64618229931e-05 -3.43475248243e-16 0)
(-5.64618229929e-05 -3.3653635434e-16 0)
(-5.64618229929e-05 -4.2674197509e-16 0)
(-5.64618229931e-05 -5.62050406217e-16 0)
(-5.64618229931e-05 -6.00214322688e-16 0)
(-5.64618229932e-05 -6.07153216592e-16 0)
(-5.64618229932e-05 -6.24500451352e-16 0)
(-5.64618229931e-05 -6.69603261727e-16 0)
(-5.6461822993e-05 -7.00828284295e-16 0)
(-5.64618229929e-05 -7.52869988574e-16 0)
(-5.64618229928e-05 -6.55725473919e-16 0)
(-5.64618229929e-05 -4.99600361081e-16 0)
(-5.6461822993e-05 -5.48172618409e-16 0)
(-5.64618229929e-05 -4.30211422042e-16 0)
(-5.64618229927e-05 -3.3653635434e-16 0)
(-5.64618229928e-05 -3.60822483003e-16 0)
(0.000289229065669 -6.69603261727e-16 0)
(0.000289229065669 -5.8633653488e-16 0)
(0.000289229065669 -7.00828284295e-16 0)
(0.000289229065669 -5.41233724505e-16 0)
(0.000289229065669 -5.37764277553e-16 0)
(0.000289229065669 -5.10008701937e-16 0)
(0.000289229065669 -5.8633653488e-16 0)
(0.000289229065669 -6.27969898304e-16 0)
(0.000289229065669 -6.34908792208e-16 0)
(0.000289229065669 -5.96744875736e-16 0)
(0.000289229065669 -6.52256026967e-16 0)
(0.000289229065669 -6.24500451352e-16 0)
(0.000289229065669 -6.24500451352e-16 0)
(0.000289229065669 -6.14092110496e-16 0)
(0.000289229065669 -6.210310044e-16 0)
(0.000289229065669 -5.75928194024e-16 0)
(0.000289229065669 -4.40619762898e-16 0)
(0.000289229065669 -6.41847686111e-16 0)
(0.000289229065669 -5.10008701937e-16 0)
(0.000289229065669 -5.48172618409e-16 0)
(0.00122973787148 -7.21644966006e-16 0)
(0.00122973787148 -7.6327832943e-16 0)
(0.00122973787148 -7.77156117238e-16 0)
(0.00122973787148 -8.01442245901e-16 0)
(0.00122973787148 -8.7083118494e-16 0)
(0.00122973787148 -8.91647866652e-16 0)
(0.00122973787148 -8.98586760556e-16 0)
(0.00122973787148 -5.96744875736e-16 0)
(0.00122973787148 -6.210310044e-16 0)
(0.00122973787148 -7.18175519054e-16 0)
(0.00122973787148 -7.77156117238e-16 0)
(0.00122973787148 -6.3837823916e-16 0)
(0.00122973787148 -6.00214322688e-16 0)
(0.00122973787148 -5.27355936697e-16 0)
(0.00122973787148 -6.66133814775e-16 0)
(0.00122973787148 -7.00828284295e-16 0)
(0.00122973787148 -6.97358837343e-16 0)
(0.00122973787148 -6.34908792208e-16 0)
(0.00122973787148 -6.80011602583e-16 0)
(0.00122973787148 -6.80011602583e-16 0)
(0.00324331560428 -7.97972798949e-16 0)
(0.00324331560428 -7.87564458094e-16 0)
(0.00324331560428 -8.46545056277e-16 0)
(0.00324331560428 -1.09287578987e-15 0)
(0.00324331560428 -1.06512021425e-15 0)
(0.00324331560428 -9.19403442268e-16 0)
(0.00324331560428 -8.43075609325e-16 0)
(0.00324331560428 -7.21644966006e-16 0)
(0.00324331560428 -6.00214322688e-16 0)
(0.00324331560428 -7.73686670286e-16 0)
(0.00324331560428 -8.39606162373e-16 0)
(0.00324331560428 -7.21644966006e-16 0)
(0.00324331560428 -6.86950496487e-16 0)
(0.00324331560428 -7.2858385991e-16 0)
(0.00324331560428 -8.43075609325e-16 0)
(0.00324331560428 -7.84095011142e-16 0)
(0.00324331560428 -8.81239525796e-16 0)
(0.00324331560428 -7.25114412958e-16 0)
(0.00324331560428 -6.24500451352e-16 0)
(0.00324331560428 -6.59194920871e-16 0)
(0.00695352831352 -8.15320033709e-16 0)
(0.00695352831352 -8.50014503229e-16 0)
(0.00695352831352 -8.67361737988e-16 0)
(0.00695352831352 -1.08246744901e-15 0)
(0.00695352831352 -1.08246744901e-15 0)
(0.00695352831352 -1.02695629778e-15 0)
(0.00695352831352 -1.03042574473e-15 0)
(0.00695352831352 -9.15933995316e-16 0)
(0.00695352831352 -9.47159017883e-16 0)
(0.00695352831352 -7.32053306862e-16 0)
(0.00695352831352 -8.56953397133e-16 0)
(0.00695352831352 -8.04911692853e-16 0)
(0.00695352831352 -7.73686670286e-16 0)
(0.00695352831352 -8.74300631892e-16 0)
(0.00695352831352 -9.36750677028e-16 0)
(0.00695352831352 -9.88792381307e-16 0)
(0.00695352831352 -9.2287288922e-16 0)
(0.00695352831352 -8.25728374565e-16 0)
(0.00695352831352 -6.3837823916e-16 0)
(0.00695352831352 -7.42461647718e-16 0)
(0.0130552106077 -7.14706072102e-16 0)
(0.0130552106077 -8.04911692853e-16 0)
(0.0130552106077 -7.2858385991e-16 0)
(0.0130552106077 -9.92261828259e-16 0)
(0.0130552106077 -8.01442245901e-16 0)
(0.0130552106077 -9.47159017883e-16 0)
(0.0130552106077 -9.2287288922e-16 0)
(0.0130552106077 -8.56953397133e-16 0)
(0.0130552106077 -7.52869988574e-16 0)
(0.0130552106077 -6.83481049535e-16 0)
(0.0130552106077 -7.6327832943e-16 0)
(0.0130552106077 -7.94503351997e-16 0)
(0.0130552106077 -7.73686670286e-16 0)
(0.0130552106077 -8.53483950181e-16 0)
(0.0130552106077 -8.81239525796e-16 0)
(0.0130552106077 -8.53483950181e-16 0)
(0.0130552106077 -7.66747776382e-16 0)
(0.0130552106077 -8.01442245901e-16 0)
(0.0130552106077 -6.52256026967e-16 0)
(0.0130552106077 -6.34908792208e-16 0)
(0.0221799355926 -4.7878367937e-16 0)
(0.0221799355926 -6.86950496487e-16 0)
(0.0221799355926 -6.97358837343e-16 0)
(0.0221799355926 -6.62664367823e-16 0)
(0.0221799355926 -6.45317133063e-16 0)
(0.0221799355926 -6.93889390391e-16 0)
(0.0221799355926 -7.07767178199e-16 0)
(0.0221799355926 -4.96130914129e-16 0)
(0.0221799355926 -5.10008701937e-16 0)
(0.0221799355926 -3.22658566532e-16 0)
(0.0221799355926 -4.64905891562e-16 0)
(0.0221799355926 -4.47558656802e-16 0)
(0.0221799355926 -4.89192020225e-16 0)
(0.0221799355926 -6.27969898304e-16 0)
(0.0221799355926 -5.72458747072e-16 0)
(0.0221799355926 -5.58580959265e-16 0)
(0.0221799355926 -6.45317133063e-16 0)
(0.0221799355926 -5.48172618409e-16 0)
(0.0221799355926 -5.48172618409e-16 0)
(0.0221799355926 -5.27355936697e-16 0)
(0.0347230892529 -4.47558656802e-16 0)
(0.0347230892529 -5.93275428784e-16 0)
(0.0347230892529 -6.48786580015e-16 0)
(0.0347230892529 -5.8633653488e-16 0)
(0.0347230892529 -6.14092110496e-16 0)
(0.0347230892529 -4.99600361081e-16 0)
(0.0347230892529 -4.71844785466e-16 0)
(0.0347230892529 -3.12250225676e-16 0)
(0.0347230892529 -3.50414142147e-16 0)
(0.0347230892529 -1.97758476261e-16 0)
(0.0347230892529 -1.52655665886e-16 0)
(0.0347230892529 -1.35308431126e-16 0)
(0.0347230892529 -2.53269627493e-16 0)
(0.0347230892529 -4.37150315946e-16 0)
(0.0347230892529 -4.19803081186e-16 0)
(0.0347230892529 -2.87964097012e-16 0)
(0.0347230892529 -2.49800180541e-16 0)
(0.0347230892529 -2.42861286637e-16 0)
(0.0347230892529 -3.50414142147e-16 0)
(0.0347230892529 -3.98986399475e-16 0)
(0.0506785900652 -3.26128013484e-16 0)
(0.0506785900652 -2.15105711021e-16 0)
(0.0506785900652 -3.60822483003e-16 0)
(0.0506785900652 -3.60822483003e-16 0)
(0.0506785900652 -2.70616862252e-16 0)
(0.0506785900652 -2.01227923213e-16 0)
(0.0506785900652 -1.5959455979e-16 0)
(0.0506785900652 -1.5959455979e-16 0)
(0.0506785900652 -5.55111512313e-17 0)
(0.0506785900652 4.85722573274e-17 0)
(0.0506785900652 -3.46944695195e-17 0)
(0.0506785900652 -2.08166817117e-17 0)
(0.0506785900652 -3.1918911958e-16 0)
(0.0506785900652 -3.12250225676e-16 0)
(0.0506785900652 -2.98372437868e-16 0)
(0.0506785900652 -1.52655665886e-16 0)
(0.0506785900652 -2.77555756156e-17 0)
(0.0506785900652 -6.24500451352e-17 0)
(0.0506785900652 -9.02056207508e-17 0)
(0.0506785900652 -2.56739074445e-16 0)
(0.0695273373169 -1.66533453694e-16 0)
(0.0695273373169 3.46944695195e-17 0)
(0.0695273373169 -5.55111512313e-17 0)
(0.0695273373169 -1.38777878078e-16 0)
(0.0695273373169 -1.73472347598e-16 0)
(0.0695273373169 -6.24500451352e-17 0)
(0.0695273373169 1.38777878078e-17 0)
(0.0695273373169 5.55111512313e-17 0)
(0.0695273373169 -4.16333634234e-17 0)
(0.0695273373169 1.11022302463e-16 0)
(0.0695273373169 1.73472347598e-16 0)
(0.0695273373169 1.11022302463e-16 0)
(0.0695273373169 -2.98372437868e-16 0)
(0.0695273373169 -1.52655665886e-16 0)
(0.0695273373169 -1.73472347598e-16 0)
(0.0695273373169 -1.38777878078e-17 0)
(0.0695273373169 -2.77555756156e-17 0)
(0.0695273373169 -1.11022302463e-16 0)
(0.0695273373169 -2.77555756156e-17 0)
(0.0695273373169 -1.31838984174e-16 0)
(0.090354254284 -1.38777878078e-17 0)
(0.090354254284 4.85722573274e-17 0)
(0.090354254284 6.24500451352e-17 0)
(0.090354254284 -6.24500451352e-17 0)
(0.090354254284 -6.93889390391e-17 0)
(0.090354254284 -2.77555756156e-17 0)
(0.090354254284 3.46944695195e-17 0)
(0.090354254284 1.5959455979e-16 0)
(0.090354254284 -4.85722573274e-17 0)
(0.090354254284 8.32667268469e-17 0)
(0.090354254284 1.04083408559e-16 0)
(0.090354254284 0 0)
(0.090354254284 -1.31838984174e-16 0)
(0.090354254284 -1.11022302463e-16 0)
(0.090354254284 0 0)
(0.090354254284 -6.93889390391e-18 0)
(0.090354254284 -8.32667268469e-17 0)
(0.090354254284 -8.32667268469e-17 0)
(0.090354254284 1.38777878078e-17 0)
(0.090354254284 -2.77555756156e-17 0)
)
;

boundaryField
{
    top
    {
        type            fixedValue;
        value           uniform (0.1 0 0);
    }
    bottom
    {
        type            fixedValue;
        value           uniform (0 0 0);
    }
    left
    {
        type            cyclic;
    }
    right
    {
        type            cyclic;
    }
    frontAndBack
    {
        type            empty;
    }
}


// ************************************************************************* //
