/*--------------------------------*- C++ -*----------------------------------*\
| =========                 |                                                 |
| \\      /  F ield         | OpenFOAM: The Open Source CFD Toolbox           |
|  \\    /   O peration     | Version:  2.4.0                                 |
|   \\  /    A nd           | Web:      www.OpenFOAM.org                      |
|    \\/     M anipulation  |                                                 |
\*---------------------------------------------------------------------------*/
FoamFile
{
    version     2.0;
    format      ascii;
    class       volScalarField;
    location    "600";
    object      rho;
}
// * * * * * * * * * * * * * * * * * * * * * * * * * * * * * * * * * * * * * //

dimensions      [1 -3 0 0 0 0 0];

internalField   nonuniform List<scalar> 
2500
(
1.00001763365
1.00001820016
1.00001822763
1.00001814327
1.0000179412
1.0000176713
1.00001735609
1.00001701317
1.00001665227
1.00001627935
1.00001589797
1.00001551042
1.00001511825
1.00001472257
1.00001432418
1.0000139237
1.00001352158
1.0000131182
1.00001271383
1.00001230869
1.00001190296
1.00001149677
1.00001109024
1.00001068345
1.00001027649
1.00000986941
1.00000946229
1.00000905519
1.00000864818
1.00000824132
1.00000783473
1.00000742852
1.00000702284
1.00000661788
1.00000621389
1.0000058112
1.00000541023
1.00000501154
1.0000046159
1.00000422434
1.00000383834
1.00000346013
1.00000309321
1.00000274354
1.00000242127
1.00000214547
1.00000194397
1.00000187742
1.00000197392
1.00000266193
1.00001810579
1.00001835175
1.00001821266
1.00001803597
1.00001779465
1.00001751761
1.00001721042
1.00001688132
1.00001653546
1.00001617691
1.00001580857
1.00001543264
1.00001505075
1.00001466414
1.00001427378
1.00001388042
1.00001348464
1.00001308694
1.00001268769
1.0000122872
1.00001188573
1.00001148351
1.00001108071
1.0000106775
1.00001027403
1.00000987043
1.00000946683
1.00000906338
1.00000866021
1.00000825748
1.00000785538
1.00000745412
1.00000705396
1.0000066552
1.00000625825
1.00000586358
1.0000054718
1.0000050837
1.0000047003
1.00000432294
1.0000039534
1.00000359409
1.00000324831
1.00000292073
1.00000261752
1.00000234844
1.00000212232
1.0000019705
1.00000188013
1.00000217131
1.00001853631
1.00001853141
1.00001831089
1.00001808371
1.0000178141
1.00001752055
1.00001720447
1.00001687093
1.00001652319
1.00001616418
1.00001579618
1.00001542099
1.00001504004
1.00001465446
1.00001426513
1.00001387278
1.00001347798
1.00001308119
1.0000126828
1.00001228313
1.00001188245
1.00001148096
1.00001107888
1.00001067637
1.00001027358
1.00000987066
1.00000946776
1.00000906502
1.0000086626
1.00000826066
1.00000785939
1.00000745903
1.00000705983
1.00000666212
1.0000062663
1.00000587283
1.00000548233
1.00000509555
1.00000471346
1.00000433729
1.0000039686
1.00000360945
1.00000326244
1.00000293101
1.0000026192
1.00000233301
1.00000207596
1.00000186693
1.0000016796
1.00000169644
1.00001885937
1.0000186951
1.00001841427
1.00001814201
1.00001784458
1.00001753252
1.00001720498
1.00001686461
1.00001651312
1.00001615232
1.00001578373
1.00001540869
1.00001502833
1.00001464358
1.00001425521
1.00001386388
1.0000134701
1.00001307433
1.00001267693
1.00001227822
1.00001187845
1.00001147786
1.00001107665
1.00001067498
1.00001027304
1.00000987097
1.00000946893
1.00000906707
1.00000866555
1.00000826456
1.0000078643
1.00000746499
1.00000706691
1.00000667037
1.00000627577
1.00000588357
1.00000549433
1.00000510874
1.00000472767
1.00000435214
1.00000398343
1.00000362308
1.0000032729
1.00000293506
1.00000261177
1.00000230617
1.00000201863
1.00000175905
1.00000150003
1.00000134287
1.0000191132
1.00001884572
1.00001852329
1.0000182151
1.00001789387
1.00001756427
1.0000172244
1.0000168754
1.00001651802
1.00001615329
1.00001578217
1.00001540558
1.00001502434
1.00001463918
1.00001425073
1.00001385952
1.00001346601
1.0000130706
1.00001267363
1.00001227538
1.00001187609
1.000011476
1.0000110753
1.00001067415
1.00001027273
1.00000987119
1.00000946968
1.00000906835
1.00000866738
1.00000826694
1.00000786722
1.00000746846
1.00000707089
1.00000667484
1.00000628064
1.00000588871
1.00000549955
1.00000511375
1.000004732
1.00000435511
1.00000398402
1.0000036198
1.00000326361
1.00000291671
1.00000258016
1.00000225534
1.0000019411
1.00000164121
1.00000133273
1.00000106522
1.00001931331
1.00001897782
1.0000186261
1.00001828929
1.00001794771
1.00001760224
1.00001725056
1.00001689279
1.00001652901
1.00001615967
1.0000157853
1.00001540647
1.00001502373
1.00001463761
1.00001424859
1.0000138571
1.00001346351
1.00001306817
1.00001267137
1.00001227337
1.00001187439
1.00001147464
1.0000110743
1.00001067353
1.0000102725
1.00000987136
1.00000947026
1.00000906933
1.00000866876
1.0000082687
1.00000786934
1.00000747089
1.00000707358
1.00000667769
1.00000628352
1.00000589143
1.00000550183
1.0000051152
1.00000473205
1.000004353
1.00000397869
1.00000360978
1.00000324692
1.00000289071
1.00000254142
1.00000219923
1.0000018623
1.00000153054
1.00000118723
1.00000084834
1.00001947505
1.00001909355
1.00001872138
1.00001836242
1.00001800399
1.00001764465
1.00001728213
1.00001691587
1.00001654556
1.00001617125
1.00001579314
1.00001541153
1.00001502676
1.00001463918
1.00001424913
1.00001385695
1.00001346292
1.00001306734
1.00001267043
1.00001227242
1.00001187352
1.00001147391
1.00001107374
1.00001067318
1.00001027238
1.00000987147
1.0000094706
1.0000090699
1.00000866953
1.00000826964
1.0000078704
1.000007472
1.00000707465
1.00000667857
1.00000628404
1.00000589133
1.00000550078
1.00000511274
1.0000047276
1.00000434575
1.00000396759
1.0000035935
1.00000322374
1.00000285845
1.0000024974
1.00000214004
1.00000178437
1.00000142812
1.00000106053
1.00000067464
1.0000196083
1.00001919464
1.00001880797
1.00001843196
1.00001805975
1.00001768852
1.00001731631
1.00001694217
1.00001656556
1.00001618626
1.00001580424
1.00001541959
1.00001503248
1.00001464313
1.00001425176
1.0000138586
1.00001346387
1.00001306779
1.00001267056
1.00001227235
1.00001187335
1.0000114737
1.00001107355
1.00001067306
1.00001027233
1.00000987151
1.00000947073
1.0000090701
1.00000866977
1.00000826988
1.00000787057
1.00000747201
1.00000707437
1.00000667785
1.00000628266
1.00000588902
1.00000549717
1.00000510737
1.00000471987
1.00000433491
1.0000039527
1.00000357337
1.00000319693
1.0000028232
1.00000245168
1.0000020814
1.00000171052
1.0000013356
1.00000095091
1.00000053321
1.00001972008
1.00001928319
1.00001888612
1.00001849699
1.00001811363
1.00001773236
1.00001735164
1.00001697036
1.00001658784
1.00001620371
1.00001581777
1.00001542999
1.00001504038
1.00001464906
1.00001425615
1.0000138618
1.00001346616
1.00001306939
1.00001267164
1.00001227306
1.0000118738
1.00001147397
1.0000110737
1.00001067312
1.00001027235
1.00000987149
1.00000947065
1.00000906996
1.00000866952
1.00000826947
1.00000786992
1.00000747102
1.0000070729
1.00000667572
1.00000627964
1.00000588482
1.00000549144
1.00000509965
1.0000047096
1.0000043214
1.00000393511
1.0000035507
1.00000316801
1.00000278666
1.000002406
1.00000202488
1.0000016418
1.0000012527
1.00000085587
1.00000041605
1.00001981518
1.00001936099
1.00001895634
1.00001855705
1.00001816469
1.00001777501
1.00001738693
1.00001699927
1.00001661133
1.00001622265
1.00001583293
1.00001544202
1.00001504987
1.00001465649
1.00001426191
1.00001386622
1.00001346953
1.00001307192
1.00001267352
1.00001227444
1.00001187477
1.00001147464
1.00001107413
1.00001067336
1.00001027241
1.00000987139
1.00000947039
1.00000906951
1.00000866885
1.0000082685
1.00000786857
1.00000746918
1.00000707042
1.00000667243
1.00000627529
1.00000587915
1.00000548408
1.00000509018
1.00000469752
1.0000043061
1.00000391587
1.0000035267
1.00000313829
1.00000275019
1.00000236169
1.00000197158
1.00000157876
1.00000117887
1.00000077331
1.00000031769
1.00001989703
1.00001942955
1.00001901929
1.00001861208
1.00001821244
1.00001781575
1.00001742136
1.00001702807
1.00001663524
1.00001624235
1.00001584905
1.00001545513
1.00001506047
1.00001466499
1.00001426869
1.00001387159
1.00001347375
1.00001307521
1.00001267605
1.00001227635
1.00001187619
1.00001147564
1.00001107479
1.00001067372
1.00001027251
1.00000987123
1.00000946997
1.0000090688
1.0000086678
1.00000826706
1.00000786664
1.00000746664
1.00000706714
1.00000666821
1.00000626992
1.00000587235
1.00000547554
1.00000507951
1.00000468426
1.00000428973
1.00000389579
1.00000350223
1.00000310871
1.0000027147
1.00000231953
1.00000192204
1.00000152147
1.00000111332
1.00000070139
1.00000023417
1.00001996808
1.00001949013
1.00001907564
1.00001866218
1.00001825666
1.00001785414
1.00001745435
1.00001705615
1.00001665895
1.00001626222
1.0000158656
1.00001546883
1.00001507173
1.0000146742
1.00001427618
1.00001387764
1.00001347858
1.00001307905
1.00001267906
1.00001227867
1.00001187794
1.0000114769
1.00001107564
1.00001067419
1.00001027264
1.00000987102
1.00000946941
1.00000906787
1.00000866646
1.00000826523
1.00000786425
1.00000746356
1.00000706323
1.0000066633
1.00000626381
1.00000586478
1.00000546621
1.00000506809
1.00000467035
1.00000427289
1.00000387552
1.00000347799
1.00000307994
1.00000268083
1.00000228005
1.00000187649
1.00000146975
1.00000105523
1.00000063861
1.00000016266
1.00002003009
1.00001954373
1.000019126
1.00001870757
1.00001829726
1.00001788989
1.00001748551
1.00001708305
1.00001668199
1.0000162818
1.00001588213
1.0000154827
1.0000150833
1.00001468379
1.00001428408
1.0000138841
1.00001348384
1.00001308328
1.00001268242
1.0000122813
1.00001187993
1.00001147836
1.00001107661
1.00001067474
1.00001027277
1.00000987076
1.00000946875
1.00000906678
1.00000866489
1.00000826312
1.00000786151
1.00000746009
1.00000705889
1.00000665793
1.00000625721
1.00000585673
1.00000545645
1.00000505632
1.00000465623
1.00000425605
1.00000385557
1.0000034545
1.00000305248
1.00000264899
1.0000022435
1.00000183498
1.00000142332
1.00000100386
1.00000058371
1.00000010106
1.00002008441
1.00001959114
1.00001917092
1.00001874849
1.00001833426
1.00001792286
1.00001751458
1.00001710845
1.00001670399
1.00001630072
1.00001589829
1.00001549641
1.00001509486
1.00001469348
1.00001429215
1.00001389078
1.00001348932
1.00001308773
1.00001268599
1.00001228411
1.00001188209
1.00001147994
1.00001107767
1.00001067533
1.00001027291
1.00000987046
1.000009468
1.00000906556
1.00000866315
1.00000826081
1.00000785854
1.00000745636
1.00000705428
1.00000665229
1.00000625036
1.00000584848
1.00000544656
1.00000504454
1.00000464228
1.00000423961
1.00000383633
1.00000343213
1.00000302667
1.00000261946
1.00000221003
1.00000179744
1.00000138185
1.00000095851
1.00000053571
1.0000000478
1.00002013201
1.00001963303
1.00001921084
1.00001878517
1.00001836774
1.00001795297
1.0000175414
1.0000171321
1.00001672467
1.00001631868
1.00001591377
1.00001550967
1.00001510615
1.00001470303
1.00001430017
1.00001389747
1.00001349485
1.00001309226
1.00001268965
1.00001228701
1.00001188432
1.00001148158
1.00001107878
1.00001067594
1.00001027305
1.00000987014
1.00000946721
1.00000906427
1.00000866132
1.00000825839
1.00000785545
1.00000745251
1.00000704956
1.00000664656
1.00000624347
1.00000584025
1.0000054368
1.00000503302
1.00000462877
1.00000422388
1.0000038181
1.00000341117
1.00000300274
1.00000259237
1.00000217966
1.00000176376
1.000001345
1.00000091861
1.00000049377
1.00000000168
1.00002017367
1.00001966991
1.00001924617
1.00001881785
1.00001839778
1.00001798021
1.00001756585
1.00001715385
1.00001674385
1.00001633546
1.00001592836
1.00001552226
1.00001511695
1.00001471223
1.00001430796
1.00001390401
1.0000135003
1.00001309674
1.0000126933
1.00001228992
1.00001188657
1.00001148323
1.0000110799
1.00001067655
1.00001027319
1.0000098698
1.00000946639
1.00000906294
1.00000865946
1.00000825593
1.00000785234
1.00000744866
1.00000704486
1.0000066409
1.00000623672
1.00000583224
1.00000542738
1.00000502201
1.00000461597
1.00000420908
1.00000380112
1.00000339181
1.00000298084
1.00000256781
1.00000215238
1.00000173376
1.00000131247
1.00000088364
1.00000045723
0.999999961788
1.00002020997
1.0000197022
1.00001927721
1.00001884672
1.00001842449
1.00001800458
1.00001758788
1.00001717357
1.00001676137
1.0000163509
1.00001594186
1.00001553399
1.00001512707
1.00001472091
1.00001431534
1.00001391025
1.00001350552
1.00001310107
1.00001269683
1.00001229274
1.00001188876
1.00001148485
1.00001108099
1.00001067715
1.00001027331
1.00000986946
1.00000946557
1.00000906163
1.00000865763
1.00000825352
1.0000078493
1.00000744491
1.00000704031
1.00000663545
1.00000623026
1.00000582464
1.00000541849
1.00000501168
1.00000460405
1.00000419542
1.00000378555
1.0000033742
1.00000296108
1.00000254581
1.00000212813
1.0000017073
1.00000128395
1.00000085319
1.00000042556
0.999999927399
1.00002024136
1.00001973022
1.00001930424
1.00001887198
1.00001844796
1.00001802612
1.00001760746
1.0000171912
1.00001677712
1.00001636485
1.00001595414
1.00001554472
1.00001513638
1.00001472892
1.0000143222
1.00001391607
1.00001351041
1.00001310513
1.00001270015
1.00001229541
1.00001189083
1.00001148638
1.00001108202
1.00001067771
1.00001027342
1.00000986912
1.00000946478
1.00000906037
1.00000865586
1.00000825122
1.0000078464
1.00000744135
1.00000703602
1.00000663034
1.00000622422
1.00000581758
1.00000541028
1.0000050022
1.00000459318
1.00000418302
1.00000377152
1.00000335844
1.0000029435
1.00000252637
1.00000210683
1.0000016842
1.0000012592
1.0000008269
1.00000039832
0.999999897948
1.00002026821
1.00001975426
1.00001932749
1.00001889377
1.00001846829
1.00001804485
1.00001762457
1.00001720668
1.00001679101
1.00001637722
1.00001596507
1.00001555431
1.00001514474
1.00001473616
1.00001432842
1.00001392136
1.00001351488
1.00001310886
1.00001270321
1.00001229786
1.00001189275
1.0000114878
1.00001108298
1.00001067823
1.00001027352
1.0000098688
1.00000946404
1.00000905919
1.00000865422
1.00000824908
1.00000784372
1.00000743807
1.00000703208
1.00000662566
1.00000621873
1.00000581117
1.00000540287
1.00000499369
1.00000458346
1.00000417201
1.00000375912
1.00000334458
1.00000292812
1.00000250947
1.00000208841
1.00000166431
1.000001238
1.00000080447
1.00000037515
0.999999872984
1.00002029079
1.00001977452
1.00001934711
1.00001891223
1.00001848557
1.00001806083
1.00001763921
1.00001721999
1.00001680299
1.00001638793
1.00001597457
1.00001556269
1.00001515206
1.00001474252
1.0000143339
1.00001392605
1.00001351884
1.00001311217
1.00001270594
1.00001230006
1.00001189446
1.00001148907
1.00001108383
1.00001067869
1.0000102736
1.0000098685
1.00000946336
1.00000905813
1.00000865274
1.00000824716
1.00000784131
1.00000743514
1.00000702857
1.00000662151
1.00000621386
1.00000580552
1.00000539636
1.00000498624
1.00000457499
1.00000416245
1.00000374841
1.00000333266
1.00000291497
1.00000249506
1.00000207278
1.00000164752
1.00000122016
1.00000078565
1.00000035576
0.999999852153
1.00002030931
1.00001979117
1.00001936327
1.00001892745
1.00001849985
1.00001807408
1.0000176514
1.00001723109
1.00001681303
1.00001639693
1.00001598258
1.00001556976
1.00001515827
1.00001474793
1.00001433857
1.00001393005
1.00001352224
1.00001311502
1.00001270829
1.00001230195
1.00001189594
1.00001149016
1.00001108457
1.00001067909
1.00001027366
1.00000986825
1.00000946278
1.0000090572
1.00000865146
1.00000824549
1.00000783924
1.00000743261
1.00000702555
1.00000661794
1.0000062097
1.0000058007
1.00000539083
1.00000497993
1.00000456785
1.00000415442
1.00000373944
1.00000332271
1.00000290403
1.00000248313
1.00000205988
1.0000016337
1.00000120551
1.00000077025
1.00000033992
0.999999835175
1.00002032395
1.00001980434
1.00001937607
1.00001893953
1.00001851121
1.00001808464
1.00001766113
1.00001723998
1.00001682108
1.00001640417
1.00001598904
1.00001557548
1.0000151633
1.00001475232
1.00001434237
1.00001393331
1.00001352501
1.00001311734
1.00001271021
1.00001230351
1.00001189715
1.00001149106
1.00001108517
1.00001067941
1.00001027372
1.00000986803
1.00000946229
1.00000905643
1.0000086504
1.00000824412
1.00000783753
1.00000743054
1.00000702307
1.00000661503
1.0000062063
1.00000579678
1.00000538634
1.00000497482
1.00000456208
1.00000414795
1.00000373223
1.00000331475
1.00000289529
1.00000247363
1.00000204964
1.00000162275
1.00000119395
1.00000075811
1.00000032745
0.999999821832
1.00002033482
1.00001981414
1.0000193856
1.00001894854
1.00001851969
1.00001809253
1.00001766841
1.00001724665
1.00001682713
1.00001640963
1.00001599392
1.00001557981
1.00001516711
1.00001475565
1.00001434526
1.0000139358
1.00001352713
1.00001311912
1.00001271168
1.00001230469
1.00001189808
1.00001149175
1.00001108564
1.00001067966
1.00001027376
1.00000986786
1.00000946191
1.00000905584
1.00000864958
1.00000824307
1.00000783622
1.00000742895
1.00000702118
1.0000066128
1.00000620372
1.0000057938
1.00000538293
1.00000497095
1.00000455772
1.00000414307
1.00000372682
1.00000330877
1.00000288876
1.00000246653
1.000002042
1.00000161461
1.00000118536
1.00000074911
1.00000031822
0.999999811961
1.00002034203
1.00001982064
1.00001939192
1.00001895452
1.00001852533
1.00001809778
1.00001767327
1.00001725109
1.00001683118
1.00001641327
1.00001599718
1.00001558271
1.00001516967
1.00001475789
1.00001434721
1.00001393747
1.00001352855
1.00001312032
1.00001271267
1.0000123055
1.00001189871
1.00001149222
1.00001108595
1.00001067983
1.00001027378
1.00000986775
1.00000946166
1.00000905544
1.00000864903
1.00000824235
1.00000783533
1.00000742787
1.0000070199
1.0000066113
1.00000620197
1.0000057918
1.00000538064
1.00000496836
1.0000045548
1.00000413981
1.0000037232
1.00000330479
1.0000028844
1.00000246181
1.00000203694
1.00000160921
1.00000117967
1.00000074316
1.00000031212
0.999999805444
1.00002034562
1.00001982387
1.00001939507
1.0000189575
1.00001852814
1.00001810041
1.00001767569
1.00001725332
1.0000168332
1.0000164151
1.00001599882
1.00001558417
1.00001517096
1.00001475902
1.00001434819
1.00001393831
1.00001352927
1.00001312093
1.00001271317
1.0000123059
1.00001189902
1.00001149245
1.00001108611
1.00001067991
1.0000102738
1.00000986769
1.00000946153
1.00000905524
1.00000864875
1.00000824199
1.00000783488
1.00000742733
1.00000701925
1.00000661055
1.0000062011
1.00000579079
1.00000537949
1.00000496706
1.00000455334
1.00000413818
1.00000372139
1.0000033028
1.00000288223
1.00000245946
1.00000203441
1.00000160652
1.00000117684
1.00000074019
1.00000030908
0.999999802203
1.00002034562
1.00001982387
1.00001939507
1.0000189575
1.00001852814
1.00001810041
1.00001767569
1.00001725332
1.0000168332
1.0000164151
1.00001599882
1.00001558417
1.00001517096
1.00001475902
1.00001434819
1.00001393831
1.00001352927
1.00001312093
1.00001271317
1.0000123059
1.00001189902
1.00001149245
1.00001108611
1.00001067991
1.0000102738
1.00000986769
1.00000946153
1.00000905524
1.00000864875
1.00000824199
1.00000783488
1.00000742733
1.00000701925
1.00000661055
1.0000062011
1.00000579079
1.00000537949
1.00000496706
1.00000455334
1.00000413818
1.00000372139
1.0000033028
1.00000288223
1.00000245946
1.00000203441
1.00000160652
1.00000117684
1.00000074019
1.00000030908
0.999999802203
1.00002034203
1.00001982064
1.00001939192
1.00001895452
1.00001852533
1.00001809778
1.00001767327
1.00001725109
1.00001683118
1.00001641327
1.00001599718
1.00001558271
1.00001516967
1.00001475789
1.00001434721
1.00001393747
1.00001352855
1.00001312032
1.00001271267
1.0000123055
1.00001189871
1.00001149222
1.00001108595
1.00001067983
1.00001027378
1.00000986775
1.00000946166
1.00000905544
1.00000864903
1.00000824235
1.00000783533
1.00000742787
1.0000070199
1.0000066113
1.00000620197
1.0000057918
1.00000538064
1.00000496836
1.0000045548
1.00000413981
1.0000037232
1.00000330479
1.0000028844
1.00000246181
1.00000203694
1.00000160921
1.00000117967
1.00000074316
1.00000031212
0.999999805444
1.00002033482
1.00001981414
1.0000193856
1.00001894854
1.00001851969
1.00001809253
1.00001766841
1.00001724665
1.00001682713
1.00001640963
1.00001599392
1.00001557981
1.00001516711
1.00001475565
1.00001434526
1.0000139358
1.00001352713
1.00001311912
1.00001271168
1.00001230469
1.00001189808
1.00001149175
1.00001108564
1.00001067966
1.00001027376
1.00000986786
1.00000946191
1.00000905584
1.00000864958
1.00000824307
1.00000783622
1.00000742895
1.00000702118
1.0000066128
1.00000620372
1.0000057938
1.00000538293
1.00000497095
1.00000455772
1.00000414307
1.00000372682
1.00000330877
1.00000288876
1.00000246653
1.000002042
1.00000161461
1.00000118536
1.00000074911
1.00000031822
0.999999811961
1.00002032395
1.00001980434
1.00001937607
1.00001893953
1.00001851121
1.00001808464
1.00001766113
1.00001723998
1.00001682108
1.00001640417
1.00001598904
1.00001557548
1.0000151633
1.00001475232
1.00001434237
1.00001393331
1.00001352501
1.00001311734
1.00001271021
1.00001230351
1.00001189715
1.00001149106
1.00001108517
1.00001067941
1.00001027372
1.00000986803
1.00000946229
1.00000905643
1.0000086504
1.00000824412
1.00000783753
1.00000743054
1.00000702307
1.00000661503
1.0000062063
1.00000579678
1.00000538634
1.00000497482
1.00000456208
1.00000414795
1.00000373223
1.00000331475
1.00000289529
1.00000247363
1.00000204964
1.00000162275
1.00000119395
1.00000075811
1.00000032745
0.999999821832
1.00002030931
1.00001979117
1.00001936327
1.00001892745
1.00001849985
1.00001807408
1.0000176514
1.00001723109
1.00001681303
1.00001639693
1.00001598258
1.00001556976
1.00001515827
1.00001474793
1.00001433857
1.00001393005
1.00001352224
1.00001311502
1.00001270829
1.00001230195
1.00001189594
1.00001149016
1.00001108457
1.00001067909
1.00001027366
1.00000986825
1.00000946278
1.0000090572
1.00000865146
1.00000824549
1.00000783924
1.00000743261
1.00000702555
1.00000661794
1.0000062097
1.0000058007
1.00000539083
1.00000497993
1.00000456785
1.00000415442
1.00000373944
1.00000332271
1.00000290403
1.00000248313
1.00000205988
1.0000016337
1.00000120551
1.00000077025
1.00000033992
0.999999835175
1.00002029079
1.00001977452
1.00001934711
1.00001891223
1.00001848557
1.00001806083
1.00001763921
1.00001721999
1.00001680299
1.00001638793
1.00001597457
1.00001556269
1.00001515206
1.00001474252
1.0000143339
1.00001392605
1.00001351884
1.00001311217
1.00001270594
1.00001230006
1.00001189446
1.00001148907
1.00001108383
1.00001067869
1.0000102736
1.0000098685
1.00000946336
1.00000905813
1.00000865274
1.00000824716
1.00000784131
1.00000743514
1.00000702857
1.00000662151
1.00000621386
1.00000580552
1.00000539636
1.00000498624
1.00000457499
1.00000416245
1.00000374841
1.00000333266
1.00000291497
1.00000249506
1.00000207278
1.00000164752
1.00000122016
1.00000078565
1.00000035576
0.999999852153
1.00002026821
1.00001975426
1.00001932749
1.00001889377
1.00001846829
1.00001804485
1.00001762457
1.00001720668
1.00001679101
1.00001637722
1.00001596507
1.00001555431
1.00001514474
1.00001473616
1.00001432842
1.00001392136
1.00001351488
1.00001310886
1.00001270321
1.00001229786
1.00001189275
1.0000114878
1.00001108298
1.00001067823
1.00001027352
1.0000098688
1.00000946404
1.00000905919
1.00000865422
1.00000824908
1.00000784372
1.00000743807
1.00000703208
1.00000662566
1.00000621873
1.00000581117
1.00000540287
1.00000499369
1.00000458346
1.00000417201
1.00000375912
1.00000334458
1.00000292812
1.00000250947
1.00000208841
1.00000166431
1.000001238
1.00000080447
1.00000037515
0.999999872984
1.00002024136
1.00001973022
1.00001930424
1.00001887198
1.00001844796
1.00001802612
1.00001760746
1.0000171912
1.00001677712
1.00001636485
1.00001595414
1.00001554472
1.00001513638
1.00001472892
1.0000143222
1.00001391607
1.00001351041
1.00001310513
1.00001270015
1.00001229541
1.00001189083
1.00001148638
1.00001108202
1.00001067771
1.00001027342
1.00000986912
1.00000946478
1.00000906037
1.00000865586
1.00000825122
1.0000078464
1.00000744135
1.00000703602
1.00000663034
1.00000622422
1.00000581758
1.00000541028
1.0000050022
1.00000459318
1.00000418302
1.00000377152
1.00000335844
1.0000029435
1.00000252637
1.00000210683
1.0000016842
1.0000012592
1.0000008269
1.00000039832
0.999999897948
1.00002020997
1.0000197022
1.00001927721
1.00001884672
1.00001842449
1.00001800458
1.00001758788
1.00001717357
1.00001676137
1.0000163509
1.00001594186
1.00001553399
1.00001512707
1.00001472091
1.00001431534
1.00001391025
1.00001350552
1.00001310107
1.00001269683
1.00001229274
1.00001188876
1.00001148485
1.00001108099
1.00001067715
1.00001027331
1.00000986946
1.00000946557
1.00000906163
1.00000865763
1.00000825352
1.0000078493
1.00000744491
1.00000704031
1.00000663545
1.00000623026
1.00000582464
1.00000541849
1.00000501168
1.00000460405
1.00000419542
1.00000378555
1.0000033742
1.00000296108
1.00000254581
1.00000212813
1.0000017073
1.00000128395
1.00000085319
1.00000042556
0.999999927399
1.00002017367
1.00001966991
1.00001924617
1.00001881785
1.00001839778
1.00001798021
1.00001756585
1.00001715385
1.00001674385
1.00001633546
1.00001592836
1.00001552226
1.00001511695
1.00001471223
1.00001430796
1.00001390401
1.0000135003
1.00001309674
1.0000126933
1.00001228992
1.00001188657
1.00001148323
1.0000110799
1.00001067655
1.00001027319
1.0000098698
1.00000946639
1.00000906294
1.00000865946
1.00000825593
1.00000785234
1.00000744866
1.00000704486
1.0000066409
1.00000623672
1.00000583224
1.00000542738
1.00000502201
1.00000461597
1.00000420908
1.00000380112
1.00000339181
1.00000298084
1.00000256781
1.00000215238
1.00000173376
1.00000131247
1.00000088364
1.00000045723
0.999999961788
1.00002013201
1.00001963303
1.00001921084
1.00001878517
1.00001836774
1.00001795297
1.0000175414
1.0000171321
1.00001672467
1.00001631868
1.00001591377
1.00001550967
1.00001510615
1.00001470303
1.00001430017
1.00001389747
1.00001349485
1.00001309226
1.00001268965
1.00001228701
1.00001188432
1.00001148158
1.00001107878
1.00001067594
1.00001027305
1.00000987014
1.00000946721
1.00000906427
1.00000866132
1.00000825839
1.00000785545
1.00000745251
1.00000704956
1.00000664656
1.00000624347
1.00000584025
1.0000054368
1.00000503302
1.00000462877
1.00000422388
1.0000038181
1.00000341117
1.00000300274
1.00000259237
1.00000217966
1.00000176376
1.000001345
1.00000091861
1.00000049377
1.00000000168
1.00002008441
1.00001959114
1.00001917092
1.00001874849
1.00001833426
1.00001792286
1.00001751458
1.00001710845
1.00001670399
1.00001630072
1.00001589829
1.00001549641
1.00001509486
1.00001469348
1.00001429215
1.00001389078
1.00001348932
1.00001308773
1.00001268599
1.00001228411
1.00001188209
1.00001147994
1.00001107767
1.00001067533
1.00001027291
1.00000987046
1.000009468
1.00000906556
1.00000866315
1.00000826081
1.00000785854
1.00000745636
1.00000705428
1.00000665229
1.00000625036
1.00000584848
1.00000544656
1.00000504454
1.00000464228
1.00000423961
1.00000383633
1.00000343213
1.00000302667
1.00000261946
1.00000221003
1.00000179744
1.00000138185
1.00000095851
1.00000053571
1.0000000478
1.00002003009
1.00001954373
1.000019126
1.00001870757
1.00001829726
1.00001788989
1.00001748551
1.00001708305
1.00001668199
1.0000162818
1.00001588213
1.0000154827
1.0000150833
1.00001468379
1.00001428408
1.0000138841
1.00001348384
1.00001308328
1.00001268242
1.0000122813
1.00001187993
1.00001147836
1.00001107661
1.00001067474
1.00001027277
1.00000987076
1.00000946875
1.00000906678
1.00000866489
1.00000826312
1.00000786151
1.00000746009
1.00000705889
1.00000665793
1.00000625721
1.00000585673
1.00000545645
1.00000505632
1.00000465623
1.00000425605
1.00000385557
1.0000034545
1.00000305248
1.00000264899
1.0000022435
1.00000183498
1.00000142332
1.00000100386
1.00000058371
1.00000010106
1.00001996808
1.00001949013
1.00001907564
1.00001866218
1.00001825666
1.00001785414
1.00001745435
1.00001705615
1.00001665895
1.00001626222
1.0000158656
1.00001546883
1.00001507173
1.0000146742
1.00001427618
1.00001387764
1.00001347858
1.00001307905
1.00001267906
1.00001227867
1.00001187794
1.0000114769
1.00001107564
1.00001067419
1.00001027264
1.00000987102
1.00000946941
1.00000906787
1.00000866646
1.00000826523
1.00000786425
1.00000746356
1.00000706323
1.0000066633
1.00000626381
1.00000586478
1.00000546621
1.00000506809
1.00000467035
1.00000427289
1.00000387552
1.00000347799
1.00000307994
1.00000268083
1.00000228005
1.00000187649
1.00000146975
1.00000105523
1.00000063861
1.00000016266
1.00001989703
1.00001942955
1.00001901929
1.00001861208
1.00001821244
1.00001781575
1.00001742136
1.00001702807
1.00001663524
1.00001624235
1.00001584905
1.00001545513
1.00001506047
1.00001466499
1.00001426869
1.00001387159
1.00001347375
1.00001307521
1.00001267605
1.00001227635
1.00001187619
1.00001147564
1.00001107479
1.00001067372
1.00001027251
1.00000987123
1.00000946997
1.0000090688
1.0000086678
1.00000826706
1.00000786664
1.00000746664
1.00000706714
1.00000666821
1.00000626992
1.00000587235
1.00000547554
1.00000507951
1.00000468426
1.00000428973
1.00000389579
1.00000350223
1.00000310871
1.0000027147
1.00000231953
1.00000192204
1.00000152147
1.00000111332
1.00000070139
1.00000023417
1.00001981518
1.00001936099
1.00001895634
1.00001855705
1.00001816469
1.00001777501
1.00001738693
1.00001699927
1.00001661133
1.00001622265
1.00001583293
1.00001544202
1.00001504987
1.00001465649
1.00001426191
1.00001386622
1.00001346953
1.00001307192
1.00001267352
1.00001227444
1.00001187477
1.00001147464
1.00001107413
1.00001067336
1.00001027241
1.00000987139
1.00000947039
1.00000906951
1.00000866885
1.0000082685
1.00000786857
1.00000746918
1.00000707042
1.00000667243
1.00000627529
1.00000587915
1.00000548408
1.00000509018
1.00000469752
1.0000043061
1.00000391587
1.0000035267
1.00000313829
1.00000275019
1.00000236169
1.00000197158
1.00000157876
1.00000117887
1.00000077331
1.00000031769
1.00001972008
1.00001928319
1.00001888612
1.00001849699
1.00001811363
1.00001773236
1.00001735164
1.00001697036
1.00001658784
1.00001620371
1.00001581777
1.00001542999
1.00001504038
1.00001464906
1.00001425615
1.0000138618
1.00001346616
1.00001306939
1.00001267164
1.00001227306
1.0000118738
1.00001147397
1.0000110737
1.00001067312
1.00001027235
1.00000987149
1.00000947065
1.00000906996
1.00000866952
1.00000826947
1.00000786992
1.00000747102
1.0000070729
1.00000667572
1.00000627964
1.00000588482
1.00000549144
1.00000509965
1.0000047096
1.0000043214
1.00000393511
1.0000035507
1.00000316801
1.00000278666
1.000002406
1.00000202488
1.0000016418