/*--------------------------------*- C++ -*----------------------------------*\
| =========                 |                                                 |
| \\      /  F ield         | OpenFOAM: The Open Source CFD Toolbox           |
|  \\    /   O peration     | Version:  2.4.0                                 |
|   \\  /    A nd           | Web:      www.OpenFOAM.org                      |
|    \\/     M anipulation  |                                                 |
\*---------------------------------------------------------------------------*/
FoamFile
{
    version     2.0;
    format      ascii;
    class       volVectorField;
    location    "600";
    object      U;
}
// * * * * * * * * * * * * * * * * * * * * * * * * * * * * * * * * * * * * * //

dimensions      [0 1 -1 0 0 0 0];

internalField   nonuniform List<vector> 
2500
(
(2.37922692673e-05 4.5554010345e-07 0)
(2.33170029688e-05 6.58468449666e-08 0)
(2.33494023425e-05 -5.46575761538e-08 0)
(2.34978557727e-05 -6.77496920475e-08 0)
(2.36673613238e-05 -5.71965060608e-08 0)
(2.38188555408e-05 -4.49990040258e-08 0)
(2.39487531122e-05 -3.56233642074e-08 0)
(2.40591746993e-05 -2.89691978788e-08 0)
(2.41535965099e-05 -2.41462207055e-08 0)
(2.42347985228e-05 -2.04665783475e-08 0)
(2.43049125153e-05 -1.75139632143e-08 0)
(2.43655639039e-05 -1.50565964918e-08 0)
(2.44180413962e-05 -1.29634660235e-08 0)
(2.44633978126e-05 -1.11551962703e-08 0)
(2.4502512321e-05 -9.57859892162e-09 0)
(2.453612765e-05 -8.1944875247e-09 0)
(2.4564874334e-05 -6.97184308346e-09 0)
(2.45892875491e-05 -5.88490141968e-09 0)
(2.46098195305e-05 -4.91155400222e-09 0)
(2.46268490253e-05 -4.03236281945e-09 0)
(2.46406885818e-05 -3.22988430769e-09 0)
(2.46515901435e-05 -2.4881627832e-09 0)
(2.46597492548e-05 -1.79232786163e-09 0)
(2.46653080758e-05 -1.12825691069e-09 0)
(2.46683573402e-05 -4.82277917236e-10 0)
(2.46689373391e-05 1.5910478976e-10 0)
(2.46670379662e-05 8.09474512778e-10 0)
(2.46625978258e-05 1.48277025032e-09 0)
(2.46555023629e-05 2.193569979e-09 0)
(2.46455809341e-05 2.95740382525e-09 0)
(2.46326026891e-05 3.79111264561e-09 0)
(2.46162710755e-05 4.71327403942e-09 0)
(2.45962166977e-05 5.74472592257e-09 0)
(2.45719881584e-05 6.90923201922e-09 0)
(2.45430403519e-05 8.23436733375e-09 0)
(2.45087194243e-05 9.7527685388e-09 0)
(2.44682431687e-05 1.15040699766e-08 0)
(2.44206747431e-05 1.35382479959e-08 0)
(2.43648856856e-05 1.59220839242e-08 0)
(2.42995006746e-05 1.8752564783e-08 0)
(2.42228079554e-05 2.21854427525e-08 0)
(2.41326114747e-05 2.64935696664e-08 0)
(2.40259728568e-05 3.21770756854e-08 0)
(2.38988757522e-05 4.01235189778e-08 0)
(2.37457872177e-05 5.17164796332e-08 0)
(2.35607769158e-05 6.82446225405e-08 0)
(2.33405390341e-05 8.77858421605e-08 0)
(2.31107967824e-05 9.29574631608e-08 0)
(2.29503924041e-05 5.01300317534e-09 0)
(2.32244347305e-05 -3.40504209683e-07 0)
(8.54212145185e-05 1.26648412838e-06 0)
(8.49216848965e-05 2.51799636644e-07 0)
(8.49613662589e-05 -2.19060643298e-07 0)
(8.5233314661e-05 -3.44172992303e-07 0)
(8.56072186539e-05 -3.48600133579e-07 0)
(8.5995945566e-05 -3.17352058716e-07 0)
(8.63656670933e-05 -2.79672635961e-07 0)
(8.6702696792e-05 -2.44181756882e-07 0)
(8.70039929235e-05 -2.1273363903e-07 0)
(8.72705835855e-05 -1.85249138319e-07 0)
(8.75051021316e-05 -1.61233676053e-07 0)
(8.77105981134e-05 -1.40187999053e-07 0)
(8.78900814007e-05 -1.21685357793e-07 0)
(8.8046339501e-05 -1.05368462633e-07 0)
(8.81818807386e-05 -9.09341227649e-08 0)
(8.829892614e-05 -7.81206129728e-08 0)
(8.83994210238e-05 -6.66986952691e-08 0)
(8.84850529927e-05 -5.64651177258e-08 0)
(8.85572709051e-05 -4.72375938443e-08 0)
(8.86173024651e-05 -3.88507097588e-08 0)
(8.86661694951e-05 -3.11524654996e-08 0)
(8.87047005611e-05 -2.40012768732e-08 0)
(8.87335408858e-05 -1.72633210625e-08 0)
(8.87531595907e-05 -1.08101286324e-08 0)
(8.87638543144e-05 -4.51633874336e-09 0)
(8.876575324e-05 1.74245987353e-09 0)
(8.87588145161e-05 8.09187564274e-09 0)
(8.87428229978e-05 1.46609237933e-08 0)
(8.87173841659e-05 2.15843762186e-08 0)
(8.86819150021e-05 2.90053452182e-08 0)
(8.86356315079e-05 3.70782023246e-08 0)
(8.85775324476e-05 4.59719686105e-08 0)
(8.85063787811e-05 5.58743386984e-08 0)
(8.84206681146e-05 6.69965634673e-08 0)
(8.83186033825e-05 7.95794941198e-08 0)
(8.81980548921e-05 9.39012435038e-08 0)
(8.80565149426e-05 1.10287207401e-07 0)
(8.78910448065e-05 1.29123752891e-07 0)
(8.76982155331e-05 1.50877958374e-07 0)
(8.74740495476e-05 1.76127405721e-07 0)
(8.72139821844e-05 2.05605152903e-07 0)
(8.69129036086e-05 2.4025840276e-07 0)
(8.65654083018e-05 2.81281655282e-07 0)
(8.61666743047e-05 3.29929525482e-07 0)
(8.57145515002e-05 3.86426289059e-07 0)
(8.52156391364e-05 4.45858218649e-07 0)
(8.46952001595e-05 4.850821791e-07 0)
(8.42306585524e-05 4.26899784477e-07 0)
(8.39524675498e-05 4.86827086744e-08 0)
(8.41667414604e-05 -8.70905247064e-07 0)
(0.000145654123378 1.90456909667e-06 0)
(0.000145226510936 4.5504184159e-07 0)
(0.00014520541784 -3.80476669293e-07 0)
(0.000145443024705 -7.03172981487e-07 0)
(0.000145841156725 -7.8706944014e-07 0)
(0.000146304454 -7.68434521865e-07 0)
(0.000146779442513 -7.10706529857e-07 0)
(0.000147236106453 -6.41132435742e-07 0)
(0.000147660330986 -5.71086966156e-07 0)
(0.000148046481853 -5.05022922942e-07 0)
(0.000148393513758 -4.44463312556e-07 0)
(0.000148702657205 -3.89691713329e-07 0)
(0.000148976206915 -3.40475543685e-07 0)
(0.000149216869645 -2.96376282264e-07 0)
(0.00014942742395 -2.56885581782e-07 0)
(0.000149610542394 -2.21485534127e-07 0)
(0.000149768701187 -1.89674780051e-07 0)
(0.000149904136395 -1.60978558088e-07 0)
(0.000150018825157 -1.3495097737e-07 0)
(0.000150114480026 -1.1117348145e-07 0)
(0.000150192549839 -8.92514842733e-08 0)
(0.000150254223355 -6.88101668526e-08 0)
(0.000150300433457 -4.94899217139e-08 0)
(0.000150331860614 -3.09416604965e-08 0)
(0.000150348934815 -1.28220559756e-08 0)
(0.000150351835446 5.21129780206e-09 0)
(0.000150340488766 2.35048613304e-08 0)
(0.000150314562733 4.24143555525e-08 0)
(0.000150273458967 6.23103050482e-08 0)
(0.000150216301693 8.35840493475e-08 0)
(0.00015014192356 1.06654368102e-07 0)
(0.000150048848321 1.31974874275e-07 0)
(0.000149935270542 1.60042323746e-07 0)
(0.00014979903285 1.91405954302e-07 0)
(0.000149637601894 2.26677854889e-07 0)
(0.000149448045451 2.66544107849e-07 0)
(0.000149227015457 3.11775860167e-07 0)
(0.000148970746419 3.63238154325e-07 0)
(0.000148675087535 4.21891210096e-07 0)
(0.0001483356052 4.88771142136e-07 0)
(0.000147947826743 5.64917240863e-07 0)
(0.000147507771969 6.51162503177e-07 0)
(0.000147013031468 7.47571489049e-07 0)
(0.000146464963547 8.51996468799e-07 0)
(0.000145872651173 9.56410042544e-07 0)
(0.000145260718447 1.03816438274e-06 0)
(0.00014467876928 1.03906060203e-06 0)
(0.000144221907906 8.24885531793e-07 0)
(0.000144001229381 1.108654093e-07 0)
(0.00014417297822 -1.24319531717e-06 0)
(0.000204149683444 2.39853034561e-06 0)
(0.000203799033774 6.70378857036e-07 0)
(0.000203722741929 -4.59656878284e-07 0)
(0.000203873701487 -9.98449341808e-07 0)
(0.000204201726337 -1.2062817559e-06 0)
(0.000204631064404 -1.24136090987e-06 0)
(0.00020510652703 -1.19260304921e-06 0)
(0.000205589919588 -1.10624484024e-06 0)
(0.000206058184451 -1.00596884953e-06 0)
(0.000206498326005 -9.0360365943e-07 0)
(0.000206903887226 -8.04896863723e-07 0)
(0.000207272378136 -7.12455779735e-07 0)
(0.000207603650934 -6.27261866319e-07 0)
(0.000207898876705 -5.49450340063e-07 0)
(0.00020815991906 -4.78718715705e-07 0)
(0.000208388950551 -4.14543804644e-07 0)
(0.000208588218571 -3.56298283042e-07 0)
(0.00020875990235 -3.0331323539e-07 0)
(0.000208906025817 -2.54910990092e-07 0)
(0.000209028404719 -2.10421287972e-07 0)
(0.000209128614725 -1.69187940831e-07 0)
(0.000209207972211 -1.30569990478e-07 0)
(0.000209267522494 -9.39396260257e-08 0)
(0.000209308032143 -5.86781535509e-08 0)
(0.000209329983218 -2.41707359523e-08 0)
(0.000209333568018 1.01996949245e-08 0)
(0.000209318683462 4.50591463971e-08 0)
(0.000209284924597 8.10497926418e-08 0)
(0.000209231576998 1.18837672349e-07 0)
(0.000209157608165 1.59120819388e-07 0)
(0.000209061658338 2.02637746076e-07 0)
(0.000208942031622 2.50176099288e-07 0)
(0.000208796689043 3.02581085265e-07 0)
(0.000208623246248 3.60762848656e-07 0)
(0.000208418980381 4.25701214337e-07 0)
(0.000208180853638 4.98444752594e-07 0)
(0.000207905566007 5.80098399176e-07 0)
(0.000207589658181 6.71788595465e-07 0)
(0.0002072297 7.74584508293e-07 0)
(0.00020682262465 8.89332936001e-07 0)
(0.000206366308478 1.01632087459e-06 0)
(0.000205860566098 1.15459062847e-06 0)
(0.000205308805702 1.30054123797e-06 0)
(0.000204720757954 1.4450914823e-06 0)
(0.000204116469779 1.56788393503e-06 0)
(0.000203532262267 1.62606162682e-06 0)
(0.000203024624525 1.53236546725e-06 0)
(0.00020267500992 1.12354296842e-06 0)
(0.000202548721935 1.2004524828e-07 0)
(0.000202696867817 -1.52353632081e-06 0)
(0.000260551511318 2.76710018154e-06 0)
(0.000260270245872 8.79065680742e-07 0)
(0.000260158738702 -4.65710469976e-07 0)
(0.000260225229913 -1.20208185108e-06 0)
(0.000260456569623 -1.55097653889e-06 0)
(0.000260803675225 -1.66919286742e-06 0)
(0.000261220692131 -1.65800102293e-06 0)
(0.000261669869864 -1.57765627631e-06 0)
(0.000262124360708 -1.46330581703e-06 0)
(0.000262566284695 -1.33500098518e-06 0)
(0.000262984579199 -1.20400120066e-06 0)
(0.000263372940048 -1.076453337e-06 0)
(0.000263728265307 -9.55537145014e-07 0)
(0.000264049530783 -8.42703015997e-07 0)
(0.000264337014719 -7.38391125452e-07 0)
(0.00026459177097 -6.42451897146e-07 0)
(0.000264815274649 -5.54393978382e-07 0)
(0.000265009184325 -4.73531257784e-07 0)
(0.000265175182515 -3.99070008131e-07 0)
(0.00026531486849 -3.30159988585e-07 0)
(0.000265429686039 -2.65923541396e-07 0)
(0.000265520874515 -2.05471056602e-07 0)
(0.000265589435354 -1.47907871103e-07 0)
(0.000265636108807 -9.23357064751e-08 0)
(0.000265661357337 -3.7850573494e-08 0)
(0.000265665353403 1.6461635755e-08 0)
(0.000265647970141 7.15310619613e-08 0)
(0.000265608774221 1.28310723913e-07 0)
(0.00026554702067 1.87783816267e-07 0)
(0.000265461650108 2.50970953986e-07 0)
(0.00026535128948 3.1893670543e-07 0)
(0.00026521425828 3.92794427354e-07 0)
(0.000265048583475 4.73707813078e-07 0)
(0.000264852028162 5.62886515985e-07 0)
(0.000264622141669 6.61571403424e-07 0)
(0.000264356342922 7.71001863859e-07 0)
(0.000264052055198 8.92352113304e-07 0)
(0.000263706919932 1.02661375945e-06 0)
(0.000263319131598 1.17438447752e-06 0)
(0.000262887956773 1.33549128632e-06 0)
(0.000262414527398 1.50831936492e-06 0)
(0.000261903033364 1.68861557115e-06 0)
(0.000261362442862 1.8673480219e-06 0)
(0.00026080888145 2.0269185961e-06 0)
(0.000260268383434 2.13447583058e-06 0)
(0.000259779668795 2.13086401404e-06 0)
(0.000259392752042 1.9125291832e-06 0)
(0.000259163955255 1.31255204782e-06 0)
(0.000259118577025 8.80218620075e-08 0)
(0.000259247415572 -1.72766589313e-06 0)
(0.000314641133315 3.03548054656e-06 0)
(0.000314422863589 1.07096311685e-06 0)
(0.000314296056087 -4.16667799406e-07 0)
(0.000314296937587 -1.3141833673e-06 0)
(0.000314435932602 -1.79876357027e-06 0)
(0.000314687972172 -2.01295521077e-06 0)
(0.000315020575222 -2.05930431557e-06 0)
(0.00031540189506 -2.00545825961e-06 0)
(0.000315805919333 -1.89488272081e-06 0)
(0.000316213072247 -1.75482758013e-06 0)
(0.000316609589092 -1.60210827722e-06 0)
(0.000316986324388 -1.44689725134e-06 0)
(0.000317337596159 -1.2951731786e-06 0)
(0.000317660207109 -1.1502693884e-06 0)
(0.000317952684045 -1.01384992596e-06 0)
(0.000318214708938 -8.8652409494e-07 0)
(0.000318446703469 -7.68234628339e-07 0)
(0.000318649529375 -6.58503640008e-07 0)
(0.000318824273804 -5.56588760098e-07 0)
(0.000318972096038 -4.61582071015e-07 0)
(0.000319094118167 -3.72472278216e-07 0)
(0.000319191347082 -2.88183009692e-07 0)
(0.000319264618783 -2.07595478297e-07 0)
(0.000319314558653 -1.29560821278e-07 0)
(0.000319341553252 -5.29056265689e-08 0)
(0.000319345730688 2.35669857087e-08 0)
(0.000319326947674 1.01079025761e-07 0)
(0.00031928478236 1.80880723109e-07 0)
(0.000319218532841 2.64253848471e-07 0)
(0.000319127222073 3.52514007741e-07 0)
(0.000319009610916 4.47010331154e-07 0)
(0.000318864222182 5.49120362851e-07 0)
(0.000318689380155 6.60236889884e-07 0)
(0.000318483272192 7.81741675092e-07 0)
(0.000318244041966 9.14958166286e-07 0)
(0.000317969928129 1.06107052201e-06 0)
(0.00031765946786 1.22098851899e-06 0)
(0.000317311792505 1.39512512358e-06 0)
(0.000316927052016 1.58303234926e-06 0)
(0.00031650701561 1.78280637479e-06 0)
(0.000316055902295 1.99011600036e-06 0)
(0.000315581490546 2.1966207517e-06 0)
(0.00031509649973 2.3874053022e-06 0)
(0.000314620131774 2.53689922848e-06 0)
(0.00031417921781 2.60248699733e-06 0)
(0.000313808167998 2.51532942321e-06 0)
(0.000313544441271 2.16764834757e-06 0)
(0.000313419534887 1.40435226099e-06 0)
(0.000313431201609 2.72089736374e-08 0)
(0.000313539395019 -1.87461366938e-06 0)
(0.000366281827329 3.22054214027e-06 0)
(0.000366121242101 1.23736977621e-06 0)
(0.000365994259079 -3.34523403417e-07 0)
(0.00036595009677 -1.35262074694e-06 0)
(0.000366012342686 -1.95476380581e-06 0)
(0.000366174328002 -2.26419597751e-06 0)
(0.000366416721372 -2.37761893954e-06 0)
(0.000366715875424 -2.36432361763e-06 0)
(0.000367049590628 -2.27239603124e-06 0)
(0.000367399254618 -2.13429398133e-06 0)
(0.000367750412905 -1.97153119186e-06 0)
(0.000368092442453 -1.79810421388e-06 0)
(0.000368417921003 -1.62292236207e-06 0)
(0.000368721939303 -1.45147398444e-06 0)
(0.000369001480092 -1.28695481168e-06 0)
(0.000369254901066 -1.13102551339e-06 0)
(0.0003694815242 -9.84318952843e-07 0)
(0.000369681318248 -8.46779553725e-07 0)
(0.000369854657462 -7.17890364005e-07 0)
(0.000370002140178 -5.96824856266e-07 0)
(0.000370124453463 -4.82548100609e-07 0)
(0.000370222272724 -3.73883716045e-07 0)
(0.000370296187767 -2.69557604457e-07 0)
(0.00037034664894 -1.68225920404e-07 0)
(0.000370373928722 -6.84924256332e-08 0)
(0.000370378095578 3.10811032788e-08 0)
(0.000370358998054 1.31968654152e-07 0)
(0.000370316258146 2.35675690022e-07 0)
(0.000370249273929 3.43734692721e-07 0)
(0.000370157232427 4.5769831077e-07 0)
(0.000370039134814 5.79127401379e-07 0)
(0.000369893837318 7.09570358913e-07 0)
(0.000369720112825 8.5052861688e-07 0)
(0.000369516740243 1.00340083976e-06 0)
(0.000369282631268 1.16939459542e-06 0)
(0.000369017007448 1.34938855101e-06 0)
(0.000368719644221 1.54371932934e-06 0)
(0.000368391202568 1.75185351178e-06 0)
(0.000368033671675 1.97188445895e-06 0)
(0.000367650944904 2.19976271592e-06 0)
(0.000367249539188 2.428123688e-06 0)
(0.000366839435316 2.64451739358e-06 0)
(0.000366434931372 2.82876801624e-06 0)
(0.000366055261118 2.94915144597e-06 0)
(0.000365724375692 2.95702831964e-06 0)
(0.000365469045693 2.78012836788e-06 0)
(0.000365313221103 2.31479432693e-06 0)
(0.00036526843109 1.42473093995e-06 0)
(0.000365315895083 -4.64865202134e-08 0)
(0.00036540161648 -1.97387970182e-06 0)
(0.000415385923667 3.33531563008e-06 0)
(0.000415277988556 1.37370984917e-06 0)
(0.000415160884107 -2.36314948783e-07 0)
(0.000415088919121 -1.33649949993e-06 0)
(0.000415091908329 -2.03237454263e-06 0)
(0.000415176067634 -2.42736093769e-06 0)
(0.000415333149597 -2.60863559553e-06 0)
(0.00041554790986 -2.64305258043e-06 0)
(0.000415803362072 -2.58004186755e-06 0)
(0.000416083591571 -2.45505009357e-06 0)
(0.000416375064146 -2.29297152604e-06 0)
(0.000416666977048 -2.11095324393e-06 0)
(0.000416951123687 -1.92057261919e-06 0)
(0.000417221538647 -1.72944917441e-06 0)
(0.000417474080617 -1.5424111025e-06 0)
(0.000417706030447 -1.36232600397e-06 0)
(0.000417915738107 -1.19068738918e-06 0)
(0.000418102328125 -1.02802655091e-06 0)
(0.000418265461563 -8.74200952239e-07 0)
(0.000418405147754 -7.28595718918e-07 0)
(0.000418521597699 -5.90264115559e-07 0)
(0.000418615111427 -4.58025200008e-07 0)
(0.00041868599265 -3.30531470028e-07 0)
(0.000418734485351 -2.06315594219e-07 0)
(0.000418760728181 -8.38227900273e-08 0)
(0.000418764723711 3.85662605899e-08 0)
(0.000418746320664 1.62518129513e-07 0)
(0.000418705208235 2.89731737381e-07 0)
(0.000418640922586 4.21922752013e-07 0)
(0.000418552866601 5.60804016973e-07 0)
(0.00041844034505 7.08058128187e-07 0)
(0.000418302618546 8.6529716213e-07 0)
(0.000418138981045 1.03400276746e-06 0)
(0.000417948867252 1.21543710936e-06 0)
(0.000417731998025 1.41051108024e-06 0)
(0.000417488573623 1.61959021287e-06 0)
(0.00041721952584 1.84221006393e-06 0)
(0.000416926839961 2.07666046594e-06 0)
(0.000416613953904 2.31938085828e-06 0)
(0.000416286231657 2.56408618733e-06 0)
(0.000415951484648 2.80051451106e-06 0)
(0.000415620469364 3.01265966597e-06 0)
(0.000415307204141 3.17632972053e-06 0)
(0.000415028818085 3.25591257628e-06 0)
(0.000414804423544 3.20029685219e-06 0)
(0.000414652312135 2.93848590374e-06 0)
(0.000414584504953 2.3756230805e-06 0)
(0.000414598100708 1.39582620141e-06 0)
(0.000414665622513 -1.22210108326e-07 0)
(0.000414728195354 -2.03279335252e-06 0)
(0.00046189444544 3.38983407371e-06 0)
(0.000461834324458 1.47804900727e-06 0)
(0.000461733155711 -1.34380469289e-07 0)
(0.000461646402038 -1.28277987906e-06 0)
(0.000461605853989 -2.0473173426e-06 0)
(0.00046162617694 -2.51326783116e-06 0)
(0.00046170768361 -2.75697412398e-06 0)
(0.000461842647107 -2.84039190994e-06 0)
(0.000462019579188 -2.81182910537e-06 0)
(0.000462226140188 -2.70773301038e-06 0)
(0.000462450783047 -2.55497013561e-06 0)
(0.000462683543367 -2.37293782071e-06 0)
(0.000462916290814 -2.17536478665e-06 0)
(0.000463142676931 -1.97174870332e-06 0)
(0.000463357933328 -1.76846558619e-06 0)
(0.000463558613241 -1.56960544022e-06 0)
(0.000463742328371 -1.3775923818e-06 0)
(0.000463907506961 -1.19364021749e-06 0)
(0.000464053183865 -1.01808497798e-06 0)
(0.000464178825024 -8.50626581922e-07 0)
(0.000464284184545 -6.90503950872e-07 0)
(0.000464369190868 -5.36621685997e-07 0)
(0.000464433858047 -3.87641727661e-07 0)
(0.000464478218484 -2.4204998482e-07 0)
(0.000464502274021 -9.82054650239e-08 0)
(0.00046450596309 4.56222412687e-08 0)
(0.000464489142402 1.91222360088e-07 0)
(0.0004644515825 3.40415044119e-07 0)
(0.000464392977335 4.95022195417e-07 0)
(0.000464312968902 6.56832757538e-07 0)
(0.000464211188891 8.27557548804e-07 0)
(0.00046408732025 1.00876749142e-06 0)
(0.000463941182547 1.20180721019e-06 0)
(0.000463772845918 1.40767321291e-06 0)
(0.000463582779091 1.62684194285e-06 0)
(0.000463372037056 1.85902755129e-06 0)
(0.000463142492788 2.10284189244e-06 0)
(0.000462897113899 2.35531964377e-06 0)
(0.000462640277158 2.61125959488e-06 0)
(0.000462378098553 2.86232000812e-06 0)
(0.000462118729301 3.09579383879e-06 0)
(0.000461872523004 3.29298710255e-06 0)
(0.000461651910369 3.42713792363e-06 0)
(0.000461470718199 3.46089424431e-06 0)
(0.000461342571971 3.3434772654e-06 0)
(0.000461277858411 3.00816995836e-06 0)
(0.00046127910216 2.37089620002e-06 0)
(0.000461333702936 1.33501457957e-06 0)
(0.000461410511464 -1.9281409807e-07 0)
(0.000461450323938 -2.05687190122e-06 0)
(0.000505766149144 3.39217436577e-06 0)
(0.00050574925803 1.55037183e-06 0)
(0.000505667265324 -3.68902447249e-08 0)
(0.000505574979692 -1.20480457089e-06 0)
(0.000505503739418 -2.01409528965e-06 0)
(0.000505473421422 -2.53438561278e-06 0)
(0.000505490569065 -2.83128574169e-06 0)
(0.000505553674421 -2.96064149465e-06 0)
(0.000505656380437 -2.96800341948e-06 0)
(0.000505790167276 -2.88925684848e-06 0)
(0.000505946045828 -2.75196781486e-06 0)
(0.000506115573877 -2.57684810783e-06 0)
(0.000506291364789 -2.37914406731e-06 0)
(0.000506467272224 -2.16983641818e-06 0)
(0.000506638379781 -1.95662788906e-06 0)
(0.000506800886345 -1.74472921381e-06 0)
(0.000506951944943 -1.53747123073e-06 0)
(0.000507089489927 -1.33677438938e-06 0)
(0.00050721207185 -1.14350518807e-06 0)
(0.00050731870967 -9.5774487215e-07 0)
(0.000507408764073 -7.78991090287e-07 0)
(0.000507481832493 -6.06308954521e-07 0)
(0.000507537664777 -4.38444383268e-07 0)
(0.000507576097828 -2.73909805475e-07 0)
(0.000507597007478 -1.11050185919e-07 0)
(0.000507600276171 5.19041881572e-08 0)
(0.000507585775463 2.16792707056e-07 0)
(0.00050755336295 3.85482332469e-07 0)
(0.000507502893825 5.5982362777e-07 0)
(0.000507434247959 7.41599904641e-07 0)
(0.000507347374005 9.32463765932e-07 0)
(0.000507242352656 1.13385413448e-06 0)
(0.000507119481632 1.3468850734e-06 0)
(0.000506979385184 1.57219520728e-06 0)
(0.000506823150539 1.80974318362e-06 0)
(0.000506652492443 2.05853025715e-06 0)
(0.00050646994395 2.31622568891e-06 0)
(0.000506279065964 2.57866444737e-06 0)
(0.000506084658003 2.83918039256e-06 0)
(0.000505892936159 3.0877336525e-06 0)
(0.000505711618877 3.30979148257e-06 0)
(0.000505549823373 3.484935917e-06 0)
(0.000505417629321 3.58520502537e-06 0)
(0.000505325098595 3.57326472749e-06 0)
(0.000505280538034 3.40061513194e-06 0)
(0.000505287623599 3.00643526585e-06 0)
(0.000505341803301 2.31772147077e-06 0)
(0.000505424350145 1.254732975e-06 0)
(0.000505503431047 -2.54208886281e-07 0)
(0.00050552158814 -2.05068742869e-06 0)
(0.00054697112781 3.34897340711e-06 0)
(0.000546993191701 1.59179429057e-06 0)
(0.000546931744169 5.10296858329e-08 0)
(0.000546840235281 -1.11256304644e-06 0)
(0.000546748278073 -1.94497423505e-06 0)
(0.000546678731927 -2.50276720349e-06 0)
(0.000546642466531 -2.8416497337e-06 0)
(0.000546642860878 -3.01099425629e-06 0)
(0.000546678014645 -3.05265047177e-06 0)
(0.000546743073183 -3.0008340932e-06 0)
(0.000546831798477 -2.88277867413e-06 0)
(0.000546937652313 -2.71965961288e-06 0)
(0.000547054445505 -2.52759557658e-06 0)
(0.000547176684625 -2.31859320502e-06 0)
(0.000547299712022 -2.10137913512e-06 0)
(0.000547419717252 -1.88210008834e-06 0)
(0.000547533674667 -1.66489473824e-06 0)
(0.00054763924439 -1.45235122501e-06 0)
(0.000547734660305 -1.24586792084e-06 0)
(0.000547818619334 -1.04593504955e-06 0)
(0.000547890179943 -8.52353119519e-07 0)
(0.00054794867387 -6.64401868989e-07 0)
(0.000547993632645 -4.8097117446e-07 0)
(0.000548024729206 -3.00663382929e-07 0)
(0.00054804173426 -1.2187492004e-07 0)
(0.000548044486924 5.71361903266e-08 0)
(0.000548032879252 2.38191076156e-07 0)
(0.000548006854556 4.2313367631e-07 0)
(0.000547966419762 6.13772040226e-07 0)
(0.000547911672443 8.11811732676e-07 0)
(0.000547842843479 1.01877516644e-06 0)
(0.000547760356516 1.23589961922e-06 0)
(0.000547664905367 1.4640051679e-06 0)
(0.000547557550049 1.70332174975e-06 0)
(0.000547439830978 1.95326199805e-06 0)
(0.000547313898585 2.21212349008e-06 0)
(0.000547182651632 2.47670079382e-06 0)
(0.000547049870911 2.74178477494e-06 0)
(0.00054692032491 2.99952511103e-06 0)
(0.000546799808949 3.23863403749e-06 0)
(0.000546695058941 3.44341813936e-06 0)
(0.000546613453241 3.59264734099e-06 0)
(0.000546562391347 3.65830967051e-06 0)
(0.000546548195137 3.60438263932e-06 0)
(0.000546574441599 3.38583733278e-06 0)
(0.000546639435534 2.94838384589e-06 0)
(0.000546733603552 2.22946098245e-06 0)
(0.000546834606069 1.16361073092e-06 0)
(0.000546911576113 -3.04296219651e-07 0)
(0.000546909578479 -2.01808271953e-06 0)
(0.000585487036483 3.26580415636e-06 0)
(0.000585544109365 1.60407825828e-06 0)
(0.000585503373519 1.26413243618e-07 0)
(0.000585416762817 -1.01325307541e-06 0)
(0.000585311589899 -1.84979816715e-06 0)
(0.000585212226544 -2.42908802364e-06 0)
(0.000585132415956 -2.79805804525e-06 0)
(0.000585079237401 -2.99976119943e-06 0)
(0.000585054483264 -3.07191389096e-06 0)
(0.000585056594684 -3.04635434706e-06 0)
(0.000585082024955 -2.94921514385e-06 0)
(0.000585126285912 -2.80142835999e-06 0)
(0.000585184647353 -2.61939534134e-06 0)
(0.00058525257781 -2.41569003296e-06 0)
(0.000585325989876 -2.19972655169e-06 0)
(0.000585401351286 -1.97835463843e-06 0)
(0.000585475708371 -1.75637021673e-06 0)
(0.00058554665679 -1.53694133265e-06 0)
(0.00058561228388 -1.32195674993e-06 0)
(0.000585671099003 -1.11230743359e-06 0)
(0.00058572196232 -9.0811185652e-07 0)
(0.000585764018393 -7.08895582599e-07 0)
(0.000585796638247 -5.13734580529e-07 0)
(0.000585819371846 -3.21370597847e-07 0)
(0.00058583191191 -1.30305893895e-07 0)
(0.000585834069486 6.11162099316e-08 0)
(0.000585825761464 2.54639093831e-07 0)
(0.000585807010226 4.5202337104e-07 0)
(0.000585777955686 6.54974685758e-07 0)
(0.000585738880062 8.6506301913e-07 0)
(0.000585690245758 1.08362721535e-06 0)
(0.000585632746567 1.31165756349e-06 0)
(0.000585567371978 1.54964811956e-06 0)
(0.000585495483391 1.79740899716e-06 0)
(0.000585418899402 2.05382720535e-06 0)
(0.000585339984507 2.31656295954e-06 0)
(0.00058526173128 2.58166710414e-06 0)
(0.00058518781966 2.84310508463e-06 0)
(0.000585122628008 3.09217493491e-06 0)
(0.000585071158436 3.31681298073e-06 0)
(0.000585038824552 3.50079390464e-06 0)
(0.000585031031756 3.62285632915e-06 0)
(0.000585052472675 3.65582225019e-06 0)
(0.000585106032972 3.56584539905e-06 0)
(0.000585191306168 3.31198266038e-06 0)
(0.000585302470424 2.84648850986e-06 0)
(0.000585426536794 2.11619429277e-06 0)
(0.000585539239097 1.06745868985e-06 0)
(0.000585611495086 -3.42269052943e-07 0)
(0.000585591021123 -1.96235304609e-06 0)
(0.000621296748962 3.14742927253e-06 0)
(0.000621385204386 1.58931227784e-06 0)
(0.000621364592336 1.87768844073e-07 0)
(0.000621285424532 -9.11912311019e-07 0)
(0.000621172542678 -1.73623071272e-06 0)
(0.000621050897877 -2.32237304359e-06 0)
(0.00062093604817 -2.70968749613e-06 0)
(0.00062083779384 -2.93534176949e-06 0)
(0.000620760887165 -3.03283176149e-06 0)
(0.000620706607889 -3.03122472795e-06 0)
(0.000620673891644 -2.95502450115e-06 0)
(0.000620660281043 -2.82437280432e-06 0)
(0.000620662613153 -2.65545408843e-06 0)
(0.000620677500248 -2.46098868274e-06 0)
(0.000620701639347 -2.25074427973e-06 0)
(0.000620731994736 -2.0320221652e-06 0)
(0.000620765889864 -1.81009573962e-06 0)
(0.000620801038481 -1.58859221466e-06 0)
(0.000620835537539 -1.36981676742e-06 0)
(0.000620867838284 -1.15502310357e-06 0)
(0.000620896706956 -9.44636717873e-07 0)
(0.000620921182821 -7.38438016971e-07 0)
(0.000620940538548 -5.35712532371e-07 0)
(0.0006209542461 -3.35375123861e-07 0)
(0.000620961950043 -1.36074603416e-07 0)
(0.000620963449455 6.3715243046e-08 0)
(0.000620958689089 2.65612593368e-07 0)
(0.000620947760229 4.71247028478e-07 0)
(0.000620930911468 6.82175998922e-07 0)
(0.000620908569483 8.99792633769e-07 0)
(0.000620881369632 1.12521878593e-06 0)
(0.000620850195753 1.35917659349e-06 0)
(0.000620816227784 1.6018310643e-06 0)
(0.000620780994568 1.85259534145e-06 0)
(0.000620746427309 2.10988951614e-06 0)
(0.000620714906215 2.37084340028e-06 0)
(0.00062068928882 2.63093396893e-06 0)
(0.000620672902867 2.88354995756e-06 0)
(0.000620669479461 3.11948034888e-06 0)
(0.000620682993414 3.32633179042e-06 0)
(0.00062071736892 3.48789403466e-06 0)
(0.000620775998592 3.58349536623e-06 0)
(0.000620861028278 3.58742095546e-06 0)
(0.000620972340683 3.4685169466e-06 0)
(0.00062110629698 3.19013897184e-06 0)
(0.000621254001251 2.71074587468e-06 0)
(0.000621400239541 1.98538872189e-06 0)
(0.000621519905279 9.70099010929e-07 0)
(0.000621586025559 -3.68112648395e-07 0)
(0.000621548797555 -1.88635198925e-06 0)
(0.00065438686069 2.9979870789e-06 0)
(0.000654503365362 1.54972412869e-06 0)
(0.000654501825953 2.34599559169e-07 0)
(0.000654431525391 -8.11954303604e-07 0)
(0.000654314887967 -1.61010817967e-06 0)
(0.00065417687669 -2.19003189269e-06 0)
(0.000654034119496 -2.58460067701e-06 0)
(0.000653898367617 -2.82565551006e-06 0)
(0.00065377668822 -2.94259858315e-06 0)
(0.000653672732782 -2.96156084982e-06 0)
(0.000653587636948 -2.90508784798e-06 0)
(0.000653520850214 -2.79213417377e-06 0)
(0.000653470773555 -2.63826864576e-06 0)
(0.000653435241368 -2.45599552005e-06 0)
(0.000653411861846 -2.25512831654e-06 0)
(0.000653398245171 -2.04317215188e-06 0)
(0.000653392145619 -1.82568779398e-06 0)
(0.000653391541322 -1.60662272639e-06 0)
(0.000653394670877 -1.38860295246e-06 0)
(0.000653400041856 -1.17318466086e-06 0)
(0.000653406422408 -9.61068137244e-07 0)
(0.000653412824076 -7.52278100283e-07 0)
(0.000653418481531 -5.46315512731e-07 0)
(0.000653422833107 -3.42286229781e-07 0)
(0.000653425504748 -1.39011870652e-07 0)
(0.000653426299046 6.48717938564e-08 0)
(0.000653425190414 2.70823746603e-07 0)
(0.00065342232698 4.8030877113e-07 0)
(0.00065341803941 6.94705433849e-07 0)
(0.000653412856488 9.15205616813e-07 0)
(0.000653407526833 1.14269993732e-06 0)
(0.000653403045461 1.37764301668e-06 0)
(0.000653400682973 1.61989217574e-06 0)
(0.000653402013784 1.86851281833e-06 0)
(0.000653408937828 2.12154371186e-06 0)
(0.000653423687543 2.37571585906e-06 0)
(0.000653448808397 2.626120085e-06 0)
(0.000653487096753 2.86582145524e-06 0)
(0.000653541473735 3.08542399636e-06 0)
(0.000653614768035 3.27259799146e-06 0)
(0.00065370937644 3.41159534271e-06 0)
(0.000653826766304 3.48279783443e-06 0)
(0.000653966796099 3.46236677802e-06 0)
(0.000654126813068 3.3220973958e-06 0)
(0.000654300625098 3.029599613e-06 0)
(0.000654477103539 2.54902485227e-06 0)
(0.000654639659328 1.84250776734e-06 0)
(0.000654763016898 8.73968709229e-07 0)
(0.000654822356084 -3.82288054556e-07 0)
(0.00065477006532 -1.79257533617e-06 0)
(0.000684746699736 2.82112897568e-06 0)
(0.000684888179644 1.48757309398e-06 0)
(0.000684904384062 2.6707248247e-07 0)
(0.000684843584114 -7.15592829242e-07 0)
(0.000684725956471 -1.475796449e-06 0)
(0.000684576151045 -2.03803216807e-06 0)
(0.000684411357629 -2.42969026169e-06 0)
(0.000684244692904 -2.67787257059e-06 0)
(0.000684085000147 -2.80813329717e-06 0)
(0.000683937868738 -2.84365601355e-06 0)
(0.000683806328986 -2.80484999958e-06 0)
(0.00068369155525 -2.7092140727e-06 0)
(0.000683593434236 -2.57139943395e-06 0)
(0.000683511022985 -2.40339747743e-06 0)
(0.000683442895365 -2.21479888431e-06 0)
(0.000683387394645 -2.01308337952e-06 0)
(0.000683342809159 -1.80391278433e-06 0)
(0.000683307488566 -1.59141007638e-06 0)
(0.000683279916 -1.37841482602e-06 0)
(0.0006832587489 -1.16671077963e-06 0)
(0.000683242838692 -9.57224972816e-07 0)
(0.000683231237079 -7.50200077826e-07 0)
(0.000683223194762 -5.45343079e-07 0)
(0.000683218156762 -3.41954162093e-07 0)