/*--------------------------------*- C++ -*----------------------------------*\
| =========                 |                                                 |
| \\      /  F ield         | OpenFOAM: The Open Source CFD Toolbox           |
|  \\    /   O peration     | Version:  2.4.0                                 |
|   \\  /    A nd           | Web:      www.OpenFOAM.org                      |
|    \\/     M anipulation  |                                                 |
\*---------------------------------------------------------------------------*/
FoamFile
{
    version     2.0;
    format      ascii;
    class       volVectorField;
    location    "600";
    object      U;
}
// * * * * * * * * * * * * * * * * * * * * * * * * * * * * * * * * * * * * * //

dimensions      [0 1 -1 0 0 0 0];

internalField   nonuniform List<vector> 
2500
(
(-0.112385521505 -0.0138005228081 0)
(-0.0855495832015 -0.00940360104432 0)
(-0.0703107606267 -0.00481233419711 0)
(-0.0615798964781 -0.00270613750027 0)
(-0.0560414557804 -0.00161128584971 0)
(-0.0523519725313 -0.00105442909342 0)
(-0.049710493332 -0.000731519659155 0)
(-0.0477494214656 -0.000533707833041 0)
(-0.0462449675547 -0.000401107509473 0)
(-0.0450696657341 -0.000307732246864 0)
(-0.0441396341132 -0.000238556025151 0)
(-0.0433992691948 -0.00018562804726 0)
(-0.0428090997089 -0.000143949224726 0)
(-0.0423405173175 -0.000110424949923 0)
(-0.0419720677673 -8.29534443271e-05 0)
(-0.0416873828007 -6.00893125629e-05 0)
(-0.0414737508779 -4.07874930353e-05 0)
(-0.0413211978171 -2.42773497947e-05 0)
(-0.0412218378064 -9.97289666963e-06 0)
(-0.0411694211229 2.58040183821e-06 0)
(-0.0411590056004 1.37431814999e-05 0)
(-0.0411867173728 2.38071179889e-05 0)
(-0.0412495737544 3.30129184893e-05 0)
(-0.0413453523388 4.15632073144e-05 0)
(-0.0414724947857 4.96321849361e-05 0)
(-0.0416300378549 5.73729769894e-05 0)
(-0.041817566541 6.49234158887e-05 0)
(-0.0420351860024 7.24106961777e-05 0)
(-0.0422835102743 7.99552261587e-05 0)
(-0.0425636668065 8.76738517571e-05 0)
(-0.0428773167833 9.56825346736e-05 0)
(-0.0432266919113 0.000104098334738 0)
(-0.0436146492199 0.000113040369057 0)
(-0.0440447455983 0.000122628558061 0)
(-0.0445213348145 0.000132978539938 0)
(-0.0450496875607 0.000144187738423 0)
(-0.0456361382723 0.000156307932406 0)
(-0.0462882532143 0.000169288319851 0)
(-0.0470150407687 0.000182889080897 0)
(-0.0478272154879 0.000196538253076 0)
(-0.0487377199599 0.000209246480733 0)
(-0.049762874886 0.00021967593116 0)
(-0.0509254969375 0.000227319214256 0)
(-0.052263242525 0.000235929384242 0)
(-0.0538469255933 0.000264130067439 0)
(-0.0558319030972 0.00036830312103 0)
(-0.0585210177798 0.000691407742857 0)
(-0.0626372235901 0.00153570304552 0)
(-0.0690703498206 0.00357142970822 0)
(-0.0807034055741 0.00816776084051 0)
(-0.256880129552 -0.0429325430343 0)
(-0.226631085166 -0.0309197582987 0)
(-0.205649790384 -0.0182758892505 0)
(-0.190670319471 -0.0119228868721 0)
(-0.179642420113 -0.00802730202491 0)
(-0.171438033326 -0.00572995439775 0)
(-0.165168956932 -0.004219004279 0)
(-0.160308998557 -0.00319097891627 0)
(-0.15648602089 -0.00244759256752 0)
(-0.153454254935 -0.00189196542745 0)
(-0.151038774114 -0.0014619167498 0)
(-0.149114903932 -0.00112095199051 0)
(-0.147590344282 -0.000844581143228 0)
(-0.146395738865 -0.000616567037238 0)
(-0.145477836327 -0.00042538986321 0)
(-0.144795236933 -0.000262763303386 0)
(-0.144315386824 -0.000122491562441 0)
(-0.144012532528 1.51538820578e-07 0)
(-0.143866249245 0.000108868906536 0)
(-0.143860384293 0.000206622408234 0)
(-0.143982279148 0.000295835524616 0)
(-0.14422219504 0.000378534376973 0)
(-0.144572886213 0.000456452442257 0)
(-0.145029285684 0.000531109139777 0)
(-0.14558827863 0.000603871619608 0)
(-0.146248547082 0.00067600499507 0)
(-0.147010475089 0.000748715250337 0)
(-0.14787610789 0.000823187784069 0)
(-0.148849162105 0.0009006240997 0)
(-0.149935087086 0.000982278797206 0)
(-0.151141180748 0.00106949905936 0)
(-0.152476766625 0.00116376881354 0)
(-0.153953443763 0.00126676041 0)
(-0.155585426356 0.00138039641836 0)
(-0.157390001414 0.00150692672248 0)
(-0.159388142555 0.0016490238513 0)
(-0.161605353396 0.00180991256403 0)
(-0.164072830564 0.00199354036728 0)
(-0.166829161535 0.00220487212444 0)
(-0.169922767172 0.00245036229085 0)
(-0.173415724273 0.00273908648017 0)
(-0.177389306131 0.00308488053395 0)
(-0.181952590721 0.00351196905828 0)
(-0.187253851122 0.00406532194531 0)
(-0.193491929715 0.00483626328477 0)
(-0.200929150644 0.00600106296834 0)
(-0.209833226269 0.00790957000641 0)
(-0.220500048102 0.0111451457929 0)
(-0.232553543984 0.0167273659962 0)
(-0.24611373355 0.0250265233798 0)
(-0.324278219385 -0.0622387500257 0)
(-0.307514736744 -0.0476617888224 0)
(-0.293048114839 -0.0313359594267 0)
(-0.280645537401 -0.0222944585946 0)
(-0.270499761896 -0.0159768362747 0)
(-0.262361537056 -0.0118883792136 0)
(-0.255837130284 -0.00898673032715 0)
(-0.250609743584 -0.00690012145628 0)
(-0.2464116705 -0.00532761178922 0)
(-0.243043042852 -0.00411465162328 0)
(-0.240349114173 -0.00315254493336 0)
(-0.23821206596 -0.00237431802343 0)
(-0.236540303514 -0.00173282702929 0)
(-0.235262267665 -0.00119569539225 0)
(-0.234321371533 -0.000739247972084 0)
(-0.233672610626 -0.000346011393138 0)
(-0.233280010456 -2.62436481521e-06 0)
(-0.233114796661 0.000301315604053 0)
(-0.233154022471 0.000574113027955 0)
(-0.233379547169 0.000822530580996 0)
(-0.233777262079 0.00105219838941 0)
(-0.234336505202 0.00126790520374 0)
(-0.235049618286 0.00147381950961 0)
(-0.235911616181 0.00167365945275 0)
(-0.236919946385 0.00187082982275 0)
(-0.238074323825 0.002068536506 0)
(-0.239376630568 0.00226988711019 0)
(-0.24083087397 0.00247798410077 0)
(-0.242443199794 0.00269601608415 0)
(-0.244221959401 0.00292735240057 0)
(-0.246177832761 0.00317564658821 0)
(-0.248324011187 0.00344495485793 0)
(-0.250676447457 0.00373987785872 0)
(-0.253254182348 0.00406573543665 0)
(-0.256079765986 0.00442879138777 0)
(-0.259179787134 0.00483654654675 0)
(-0.262585557152 0.00529814725065 0)
(-0.266333944816 0.00582494917927 0)
(-0.270468496213 0.00643140340035 0)
(-0.275040647701 0.00713634909007 0)
(-0.280111425008 0.00796537302375 0)
(-0.285752182061 0.00895422269929 0)
(-0.292045413993 0.0101558609341 0)
(-0.299077649695 0.0116487656877 0)
(-0.306926594469 0.0135564936206 0)
(-0.315609408648 0.0160539956167 0)
(-0.324994890512 0.0194093847835 0)
(-0.334604409348 0.0238745053115 0)
(-0.343353768259 0.0298057806475 0)
(-0.349599374633 0.0365469678775 0)
(-0.362298278873 -0.0692262389818 0)
(-0.357568645746 -0.055374800159 0)
(-0.350892454239 -0.0390715515091 0)
(-0.343527524893 -0.0293102985597 0)
(-0.336629800077 -0.0218222384092 0)
(-0.330561319654 -0.0166712018236 0)
(-0.325407121876 -0.0128050161741 0)
(-0.321115874105 -0.00991175085928 0)
(-0.317589073275 -0.00765809308355 0)
(-0.314725390282 -0.00587476934813 0)
(-0.312431488583 -0.00443008461955 0)
(-0.310627542845 -0.00324095726415 0)
(-0.309246440148 -0.00224593746482 0)
(-0.308232622599 -0.00140170244018 0)
(-0.307540265222 -0.000675594986056 0)
(-0.307131738621 -4.29658315236e-05 0)
(-0.306976239192 0.000515447478781 0)
(-0.307048686358 0.00101491942028 0)
(-0.307328821123 0.00146785202752 0)
(-0.307800485954 0.0018844978018 0)
(-0.308451046805 0.00227350996144 0)
(-0.309270932217 0.00264233928789 0)
(-0.310253266163 0.00299754204132 0)
(-0.31139357748 0.00334501998521 0)
(-0.312689571756 0.00369021655719 0)
(-0.314140954635 0.00403828209118 0)
(-0.31574929747 0.00439421944949 0)
(-0.317517937602 0.00476301808485 0)
(-0.319451906421 0.00514978360096 0)
(-0.321557878368 0.00555986896281 0)
(-0.323844133912 0.00599901364983 0)
(-0.326320527447 0.00647349714688 0)
(-0.328998450683 0.00699031502816 0)
(-0.331890773918 0.00755738611943 0)
(-0.335011751976 0.00818380626075 0)
(-0.338376848693 0.0088801609321 0)
(-0.34200247266 0.00965893770731 0)
(-0.345905464534 0.0105350504308 0)
(-0.350102412361 0.0115266143627 0)
(-0.354608104145 0.0126559172884 0)
(-0.359433751318 0.0139511206306 0)
(-0.364581658408 0.0154480101023 0)
(-0.370040416153 0.0171939846945 0)
(-0.375764251579 0.0192491162007 0)
(-0.381662431501 0.0216945738595 0)
(-0.387517103024 0.024614755278 0)
(-0.392999402472 0.0281148298702 0)
(-0.39733849683 0.0321677685993 0)
(-0.399856223609 0.0367438655611 0)
(-0.398480535057 0.0409944326265 0)
(-0.38862820303 -0.068682904706 0)
(-0.391917571354 -0.0569596903779 0)
(-0.391273037136 -0.0423678023079 0)
(-0.388515100857 -0.0329895753315 0)
(-0.384963748737 -0.0252678939938 0)
(-0.381307261824 -0.0196752197812 0)
(-0.377917198529 -0.0152758656308 0)
(-0.374935046807 -0.0118684724254 0)
(-0.372401550471 -0.00913651991004 0)
(-0.370305959647 -0.00692583619947 0)
(-0.368617043526 -0.00510139412028 0)
(-0.36729679193 -0.00357669514376 0)
(-0.366307198015 -0.00228423578221 0)
(-0.365613114804 -0.00117528524148 0)
(-0.365183336519 -0.00021195956793 0)
(-0.36499079874 0.000634934810589 0)
(-0.365012395968 0.00138868185359 0)
(-0.365228639626 0.00206804172257 0)
(-0.365623272685 0.0026884616055 0)
(-0.366182890592 0.00326285390463 0)
(-0.366896591274 0.00380221232797 0)
(-0.367755660657 0.00431605944213 0)
(-0.368753293561 0.00481280026446 0)
(-0.369884346005 0.00529999907188 0)
(-0.371145113401 0.00578460589887 0)
(-0.372533128158 0.00627314524541 0)
(-0.374046969658 0.00677187884184 0)
(-0.375686078851 0.00728695012974 0)
(-0.37745056899 0.00782451695028 0)
(-0.379341022485 0.00839087736907 0)
(-0.381358262801 0.00899259309103 0)
(-0.383503086373 0.00963661404649 0)
(-0.385775939809 0.0103304085352 0)
(-0.388176515169 0.0110821016139 0)
(-0.390703248308 0.0119006297038 0)
(-0.393352654689 0.0127959112813 0)
(-0.396118519019 0.0137790591648 0)
(-0.398990712916 0.0148626151481 0)
(-0.401953879403 0.0160609092931 0)
(-0.404984981393 0.0173903946914 0)
(-0.408051273762 0.0188703937399 0)
(-0.411103723743 0.020523285085 0)
(-0.414075179293 0.022376112896 0)
(-0.416857435327 0.0244578171422 0)
(-0.419312708514 0.0268022596206 0)
(-0.421178616094 0.0294243945062 0)
(-0.422205894493 0.0323291604923 0)
(-0.421699694364 0.035377616651 0)
(-0.419618006205 0.0383892081421 0)
(-0.413911326355 0.0406849538484 0)
(-0.407644387757 -0.0642088028385 0)
(-0.415755587825 -0.0549458548117 0)
(-0.41925554109 -0.0425860585666 0)
(-0.420007822986 -0.0340899144543 0)
(-0.419201129147 -0.0266849657952 0)
(-0.417664814606 -0.02106757558 0)
(-0.41589499202 -0.0164729459493 0)
(-0.414149680087 -0.0128062446126 0)
(-0.412562145607 -0.00979295765133 0)
(-0.411189483568 -0.00730733826996 0)
(-0.410050420125 -0.00522349409135 0)
(-0.409142832616 -0.0034598658403 0)
(-0.408454910362 -0.00194914592039 0)
(-0.407970609493 -0.00064165319798 0)
(-0.407672804983 0.000502424818164 0)
(-0.40754481011 0.00151435839954 0)
(-0.407571148095 0.00241955401947 0)
(-0.407737847806 0.00323875590861 0)
(-0.408032508631 0.00398923024292 0)
(-0.408444230011 0.00468551254541 0)
(-0.40896347646 0.00534002700803 0)
(-0.409581909044 0.00596353767464 0)
(-0.410292202963 0.00656551104852 0)
(-0.411087859267 0.00715439975396 0)
(-0.411963014107 0.00773787377575 0)
(-0.412912245068 0.00832300969754 0)
(-0.413930372249 0.00891644915141 0)
(-0.415012250024 0.00952453305502 0)
(-0.416152544602 0.0101534172168 0)
(-0.417345491008 0.010809173091 0)
(-0.418584623256 0.0114978768547 0)
(-0.419862468123 0.0122256888459 0)
(-0.421170197175 0.0129989259991 0)
(-0.422497218161 0.0138241278743 0)
(-0.423830712271 0.0147081218202 0)
(-0.425155057884 0.0156580840138 0)
(-0.426451216851 0.0166816170759 0)
(-0.42769582238 0.0177868183407 0)
(-0.428860422539 0.0189824237263 0)
(-0.429909583995 0.020277861917 0)
(-0.430800381763 0.0216835768256 0)
(-0.431476612461 0.0232106589886 0)
(-0.431871831045 0.0248714045812 0)
(-0.431886166959 0.0266756622104 0)
(-0.431416738452 0.028631086081 0)
(-0.430251333147 0.0307217719748 0)
(-0.428283283934 0.0329088250326 0)
(-0.424970948618 0.0350388514989 0)
(-0.420681393789 0.0368928869417 0)
(-0.413588566955 0.0380573001714 0)
(-0.420613768284 -0.0580701593023 0)
(-0.431165376429 -0.0511055983198 0)
(-0.437212811456 -0.0409672930884 0)
(-0.440372485414 -0.0335237732808 0)
(-0.441594636624 -0.0267064190998 0)
(-0.441712856597 -0.0213090270501 0)
(-0.441243579595 -0.0167469600079 0)
(-0.440502637737 -0.0130093079403 0)
(-0.439675502824 -0.00987314143181 0)
(-0.438864904672 -0.00724376362941 0)
(-0.438125723615 -0.00501079422733 0)
(-0.437483849784 -0.00310187494179 0)
(-0.436948907259 -0.00145377620163 0)
(-0.436521163365 -1.8777788775e-05 0)
(-0.436195906796 0.00124250685915 0)
(-0.435965868062 0.00236157381602 0)
(-0.435822676566 0.00336444885927 0)
(-0.435757650137 0.00427262544125 0)
(-0.435762226283 0.00510414770764 0)
(-0.435828159746 0.00587427721132 0)
(-0.435947587887 0.00659607610382 0)
(-0.436113012863 0.00728083334984 0)
(-0.436317235241 0.0079384146573 0)
(-0.436553257286 0.00857753708725 0)
(-0.436814167482 0.0092059936596 0)
(-0.437093012272 0.0098308358055 0)
(-0.437382658188 0.0104585240663 0)
(-0.437675645435 0.0110950527735 0)
(-0.43796403315 0.0117460539567 0)
(-0.43823923521 0.0124168840818 0)
(-0.438491846475 0.0131126968486 0)
(-0.438711455885 0.0138385043732 0)
(-0.438886449647 0.014599229803 0)
(-0.439003790942 0.0153997527251 0)
(-0.439048797283 0.0162449531624 0)
(-0.439004851557 0.0171397519299 0)
(-0.438853159955 0.0180891646155 0)
(-0.438572239607 0.0190983441568 0)
(-0.438137736753 0.0201726723382 0)
(-0.43752098861 0.0213177459809 0)
(-0.436689552369 0.0225394904427 0)
(-0.435601685574 0.0238435950968 0)
(-0.434212193297 0.0252352767302 0)
(-0.432448461212 0.0267156295455 0)
(-0.430250956975 0.0282793218953 0)
(-0.427462060027 0.0298984920206 0)
(-0.424071773402 0.031514813503 0)
(-0.419665851916 0.0329938403704 0)
(-0.414768410045 0.0341234517624 0)
(-0.407848392117 0.0347093660332 0)
(-0.428333654556 -0.0515459691614 0)
(-0.439658120525 -0.0465015427636 0)
(-0.447016766013 -0.0383529833706 0)
(-0.451653143143 -0.0319727025977 0)
(-0.454251921151 -0.0258586440956 0)
(-0.455558472663 -0.0208224629805 0)
(-0.456050131729 -0.0164431974459 0)
(-0.45605708128 -0.0127705334965 0)
(-0.455786896296 -0.00963387982629 0)
(-0.455369369508 -0.00696750728745 0)
(-0.454883344076 -0.00467918335322 0)
(-0.454375287422 -0.00270749593303 0)
(-0.453871547793 -0.000995488725109 0)
(-0.453385857304 0.000500863721126 0)
(-0.452924227687 0.00181897929281 0)
(-0.452487912607 0.00298932293396 0)
(-0.452075301044 0.00403748224569 0)
(-0.451683063285 0.00498482232937 0)
(-0.451306862511 0.00584942722918 0)
(-0.450941774774 0.00664666288225 0)
(-0.450582532326 0.00738970311328 0)
(-0.450223651187 0.00808991699672 0)
(-0.449859486861 0.00875719618079 0)
(-0.449484243744 0.00940021483659 0)
(-0.449091955602 0.0100266455139 0)
(-0.448676447709 0.0106433361117 0)
(-0.448231287745 0.0112564573959 0)
(-0.447749729691 0.0118716260128 0)
(-0.447224653814 0.0124940079964 0)
(-0.446648503806 0.0131284063179 0)
(-0.446013223059 0.013779335818 0)
(-0.445310187169 0.0144510880712 0)
(-0.444530137235 0.0151477892197 0)
(-0.443663097171 0.0158734521963 0)
(-0.442698298104 0.0166320275671 0)
(-0.441624031091 0.0174274499447 0)
(-0.440427555153 0.0182636887944 0)
(-0.439094691045 0.0191447778945 0)
(-0.437609787081 0.0200748477851 0)
(-0.435954286281 0.0210580300985 0)
(-0.434107534897 0.0220983173496 0)
(-0.432041163118 0.023198815108 0)
(-0.429726088838 0.0243607263752 0)
(-0.427108888002 0.0255800497491 0)
(-0.424156057145 0.0268433327387 0)
(-0.420747467274 0.0281176378894 0)
(-0.416920582595 0.0293371864715 0)
(-0.41235807959 0.0303940907815 0)
(-0.40759698066 0.0311044441083 0)
(-0.401387004471 0.0314083839801 0)
(-0.431776554116 -0.045311628057 0)
(-0.442822883863 -0.0417545577118 0)
(-0.450614591058 -0.0352903854844 0)
(-0.456014230856 -0.0299074545939 0)
(-0.459459874016 -0.0245279305089 0)
(-0.461560233254 -0.0199305412811 0)
(-0.462723175876 -0.0158302410213 0)
(-0.463262562474 -0.012317859208 0)
(-0.463386978963 -0.00927115731328 0)
(-0.463238473362 -0.0066497084441 0)
(-0.46290988531 -0.00437988972103 0)
(-0.462461769672 -0.00241160232305 0)
(-0.461932968154 -0.000695254087524 0)
(-0.46134802639 0.000808551518178 0)
(-0.460722071713 0.00213433105857 0)
(-0.460064012157 0.00331073571783 0)
(-0.459378649341 0.00436224010309 0)
(-0.458668050182 0.00530952549347 0)
(-0.457932450105 0.00617026007083 0)
(-0.457170839399 0.00695955021407 0)
(-0.456381346655 0.00769039845173 0)
(-0.455561486311 0.00837404532627 0)
(-0.454708317949 0.0090202688502 0)
(-0.453818546915 0.00963762688082 0)
(-0.452888586578 0.010233662924 0)
(-0.451914595211 0.0108150778647 0)
(-0.450892496234 0.0113878757155 0)
(-0.449817987142 0.0119574872585 0)
(-0.44868654068 0.012528875917 0)
(-0.447493399112 0.013106628858 0)
(-0.446233562889 0.0136950361015 0)
(-0.444901768898 0.0142981595597 0)
(-0.443492461157 0.014919893865 0)
(-0.44199973261 0.0155640191208 0)
(-0.440417260048 0.0162342464215 0)
(-0.438738143864 0.0169342507904 0)
(-0.436954787882 0.0176676899379 0)
(-0.435058430002 0.0184381833486 0)
(-0.433039058974 0.0192492416155 0)
(-0.430883911068 0.0201040505129 0)
(-0.428578348578 0.0210050667126 0)
(-0.426100475931 0.0219531368686 0)
(-0.423428663944 0.0229459402465 0)
(-0.420519911793 0.0239753182212 0)
(-0.417353949835 0.0250222030827 0)
(-0.413837358547 0.0260519936647 0)
(-0.410028031767 0.0269995996132 0)
(-0.405683127411 0.0277821920673 0)
(-0.401294352631 0.0282523206893 0)
(-0.39583877939 0.0284167655062 0)
(-0.432100307728 -0.0396701107067 0)
(-0.442306329059 -0.0372035656935 0)
(-0.44997100913 -0.0321140990383 0)
(-0.455635620969 -0.027626585218 0)
(-0.459535911138 -0.0229639697848 0)
(-0.462131583922 -0.0188403885413 0)
(-0.463749563184 -0.0150760254005 0)
(-0.464668119495 -0.0117871601059 0)
(-0.465082773804 -0.00889346793744 0)
(-0.465136432972 -0.00637576316988 0)
(-0.464927969398 -0.00417822321884 0)
(-0.464526420257 -0.00226170015934 0)
(-0.463979300618 -0.000584364257305 0)
(-0.463319396606 0.000888117297671 0)
(-0.462569250752 0.00218683227983 0)
(-0.461744339703 0.00333815200256 0)
(-0.460855225377 0.00436502046237 0)
(-0.459909030227 0.00528709061261 0)
(-0.458910445128 0.00612133538427 0)
(-0.45786242031 0.00688238637678 0)
(-0.456766642108 0.0075829174137 0)
(-0.455623863428 0.0082339365153 0)
(-0.454434134898 0.00884505274097 0)
(-0.453196967569 0.00942469707871 0)
(-0.451911448275 0.00998031451793 0)
(-0.450576321492 0.01051852709 0)
(-0.44919004689 0.0110452742768 0)
(-0.447750838124 0.0115659333207 0)
(-0.446256686315 0.0120854227486 0)
(-0.444705368658 0.0126082911902 0)
(-0.443094442934 0.0131387932893 0)
(-0.441421222212 0.0136809535976 0)
(-0.439682732215 0.014238618769 0)
(-0.437875629092 0.0148154966934 0)
(-0.43599610113 0.0154151801778 0)
(-0.434039667006 0.0160411482523 0)
(-0.432001013377 0.0166967354066 0)
(-0.429873494179 0.0173850469073 0)
(-0.427649042123 0.018108786357 0)
(-0.425316760616 0.0188699414577 0)
(-0.422863938332 0.0196692018388 0)
(-0.420271315836 0.0205050633033 0)
(-0.417520796371 0.0213720743051 0)
(-0.414576639723 0.0222589245659 0)
(-0.411426943782 0.0231435245106 0)
(-0.408000056886 0.0239922674416 0)
(-0.404362148309 0.0247461552844 0)
(-0.400326379804 0.0253431290259 0)
(-0.396324965495 0.0256713613747 0)
(-0.391503089311 0.0257636476513 0)
(-0.430461347029 -0.0347097587731 0)
(-0.439609689503 -0.0330121447933 0)
(-0.446840607324 -0.0290150199625 0)
(-0.452457851981 -0.0253057752133 0)
(-0.45654748411 -0.0213118862016 0)
(-0.459431808354 -0.017665931494 0)
(-0.461357706961 -0.0142643157924 0)
(-0.462558235031 -0.0112361865915 0)
(-0.463207176717 -0.00853554816325 0)
(-0.463439970123 -0.0061603523242 0)
(-0.463355253447 -0.00407096761688 0)
(-0.463025740602 -0.00223840792008 0)
(-0.462504135524 -0.000628548948494 0)
(-0.461828918053 0.00078775869889 0)
(-0.461028195983 0.00203790623949 0)
(-0.460122654207 0.00314571204859 0)
(-0.459127600174 0.00413232097747 0)
(-0.458054435753 0.00501612373199 0)
(-0.456911692524 0.00581319856651 0)
(-0.45570576961 0.00653754015338 0)
(-0.454441459612 0.00720136515946 0)
(-0.453122326886 0.007815351187 0)
(-0.4517509814 0.00838886666658 0)
(-0.450329278313 0.00893016603048 0)
(-0.448858463836 0.00944656357423 0)
(-0.447339281296 0.00994458324469 0)
(-0.445772046727 0.0104300889157 0)
(-0.444156699749 0.0109083962969 0)
(-0.442492833468 0.0113843686844 0)
(-0.440779704149 0.0118624976873 0)
(-0.43901622197 0.0123469697896 0)
(-0.437200917882 0.0128417187459 0)
(-0.435331890313 0.0133504629219 0)
(-0.433406711625 0.0138767252729 0)
(-0.431422320635 0.0144238314562 0)
(-0.429374820913 0.0149948789292 0)
(-0.427259330948 0.0155926627246 0)
(-0.425069536464 0.0162195417849 0)
(-0.422797677062 0.0168771996616 0)
(-0.420433366818 0.0175662828582 0)
(-0.417964773437 0.0182857498335 0)
(-0.415374682015 0.0190320580416 0)
(-0.412648060336 0.0197974843343 0)
(-0.409756066608 0.0205689151628 0)
(-0.406693634108 0.0213236283761 0)
(-0.403407212598 0.0220308444116 0)
(-0.399965467669 0.0226402029384 0)
(-0.396221632082 0.0231057137928 0)
(-0.392552067902 0.0233455872271 0)
(-0.388220682188 0.0233983911642 0)
(-0.427832633046 -0.0304031463168 0)
(-0.435918886494 -0.0292336096594 0)
(-0.442589057822 -0.0260873639368 0)
(-0.447988921489 -0.0230372226025 0)
(-0.452104151077 -0.0196458081544 0)
(-0.455143333609 -0.0164587075971 0)
(-0.457281719167 -0.0134237532991 0)
(-0.458704900684 -0.0106731742266 0)
(-0.459560495716 -0.00818747189896 0)
(-0.459970911668 -0.00597773803699 0)
(-0.460029823118 -0.00401840677589 0)
(-0.459809647411 -0.00228958014724 0)
(-0.459365193192 -0.000764455586741 0)
(-0.458738224311 0.000581032353585 0)
(-0.457960545747 0.0017704902159 0)
(-0.457056573536 0.00282503568245 0)
(-0.456045167871 0.00376383648921 0)
(-0.454941015443 0.00460384629594 0)
(-0.45375562958 0.00536008407344 0)
(-0.452498087649 0.00604575929254 0)
(-0.451175571052 0.00667249908069 0)
(-0.449793764753 0.00725053302572 0)
(-0.448357153782 0.00778888347912 0)
(-0.446869244504 0.00829553217985 0)
(-0.44533272979 0.00877757279205 0)
(-0.443749611467 0.00924134436063 0)
(-0.442121289321 0.00969254843492 0)
(-0.44044862264 0.0101363497318 0)
(-0.438731968498 0.0105774615295 0)
(-0.436971198245 0.0110202161176 0)
(-0.435165694422 0.0114686204234 0)
(-0.433314324504 0.0119263961882 0)
(-0.431415396683 0.01239700304 0)
(-0.429466580655 0.0128836417087 0)
(-0.427464821475 0.0133892318004 0)
(-0.425406174989 0.0139163575422 0)
(-0.423285708194 0.0144671653526 0)
(-0.421097148172 0.0150432029369 0)
(-0.418832969095 0.0156451501897 0)
(-0.416483469205 0.0162724530434 0)
(-0.414038062636 0.0169226848358 0)
(-0.411482074071 0.0175908626103 0)
(-0.408803892794 0.018267990005 0)
(-0.405981370354 0.0189403981521 0)
(-0.403015198489 0.0195864206099 0)
(-0.399866076449 0.0201790064095 0)
(-0.396602058754 0.0206768111848 0)
(-0.393103710044 0.0210457932158 0)
(-0.389700717937 0.021227336807 0)
(-0.385739692786 0.021257345188 0)
(-0.424911438171 -0.0266687189431 0)
(-0.432041487522 -0.0258559698995 0)
(-0.438135640399 -0.0233640213258 0)
(-0.443244582024 -0.0208610753038 0)
(-0.447293536856 -0.0179981321743 0)
(-0.450404177032 -0.015236559629 0)
(-0.45269215204 -0.0125561782926 0)
(-0.454298320083 -0.0100851515328 0)
(-0.455342970467 -0.0078231050794 0)
(-0.45593234336 -0.00579052438801 0)
(-0.456151884162 -0.00397349593432 0)
(-0.456070658561 -0.00235994156866 0)
(-0.455743033501 -0.000929748179024 0)
(-0.455211962911 0.000336338604869 0)
(-0.454511262025 0.00145819784444 0)
(-0.453667704891 0.00245420053411 0)
(-0.452702573576 0.00334143381884 0)
(-0.451632887121 0.00413528936994 0)
(-0.450472319096 0.00484959437162 0)
(-0.449231898121 0.00549664268602 0)
(-0.447920535512 0.00608734672455 0)
(-0.446545427035 0.00663136959159 0)
(-0.445112358907 0.00713727550016 0)
(-0.443625942233 0.0076126670728 0)
(-0.44208979262 0.00806431544174 0)
(-0.440506667284 0.00849827629587 0)
(-0.438878568382 0.00891999292827 0)
(-0.43720681853 0.00933438503649 0)
(-0.435492112973 0.00974592355732 0)
(-0.433734550425 0.0101586911818 0)
(-0.431933645469 0.0105764280826 0)
(-0.430088320149 0.0110025617806 0)
(-0.428196880928 0.0114402190171 0)
(-0.426256966751 0.0118922167095 0)
(-0.424265496626 0.0123610260098 0)
(-0.422218553828 0.0128487037418 0)
(-0.420111343068 0.0133567751803 0)
(-0.417937938021 0.013886062856 0)
(-0.415691453997 0.0144364142606 0)
(-0.413363349522 0.0150063576252 0)
(-0.410944760631 0.0155925230649 0)
(-0.408423885263 0.0161890982142 0)
(-0.405792588382 0.0167866493699 0)
(-0.403034681539 0.0173718528163 0)
(-0.400155388903 0.0179250354747 0)
(-0.397125953642 0.018423071937 0)
(-0.39401216876 0.0188328188124 0)
(-0.390712652463 0.0191289600453 0)
(-0.387520073536 0.0192698329208 0)
(-0.383839179726 0.0192860725096 0)
(-0.422119477754 -0.023407880705 0)
(-0.428440332736 -0.0228342110499 0)
(-0.434001962171 -0.0208429784402 0)
(-0.438804140542 -0.0187884586141 0)
(-0.442740663206 -0.0163804617338 0)
(-0.445870895078 -0.0140038000683 0)
(-0.44826368687 -0.011656234999 0)
(-0.450020703525 -0.00945711232522 0)
(-0.451236081799 -0.00741877026357 0)
(-0.451998755003 -0.00556774205441 0)
(-0.452384027763 -0.00389927768186 0)
(-0.452455511031 -0.00240774034829 0)
(-0.452265218727 -0.00107889264285 0)
(-0.451855645091 0.000102124646623 0)
(-0.451261250029 0.0011516478186 0)
(-0.450510043181 0.0020853508601 0)
(-0.449624808693 0.00291821196376 0)
(-0.448624137649 0.00366399199751 0)
(-0.447523228719 0.00433523686198 0)
(-0.446334524127 0.00494322744335 0)
(-0.445068204524 0.00549806265111 0)
(-0.443732578044 0.00600874275494 0)
(-0.442334385564 0.00648328169938 0)
(-0.440879041538 0.00692881600016 0)
(-0.439370824098 0.00735171276854 0)
(-0.437813024947 0.00775766855131 0)
(-0.436208066776 0.00815179850458 0)
(-0.434557593739 0.00853871368912 0)
(-0.432862539319 0.00892258595772 0)
(-0.431123173895 0.00930719949371 0)
(-0.429339135227 0.00969598804829 0)
(-0.427509440407 0.0100920564626 0)
(-0.425632485969 0.0104981840613 0)
(-0.423706024337 0.0109168069932 0)
(-0.421727144506 0.0113499736394 0)
(-0.419692202019 0.0117992683726 0)
(-0.417596825681 0.0122656890759 0)
(-0.415435749839 0.0127494771278 0)
(-0.413203049672 0.0132498590042 0)
(-0.410891621955 0.0137647386049 0)
(-0.408494510217 0.0142902013206 0)
(-0.406002736401 0.0148201009792 0)
(-0.403411327686 0.0153451584172 0)
(-0.400709016856 0.0158529494812 0)
(-0.397904358852 0.0163261796892 0)
(-0.394976043581 0.0167454431229 0)
(-0.391986880671 0.0170845303999 0)
(-0.388847242319 0.0173244788113 0)
(-0.38582110456 0.017435663093 0)
(-0.382355029504 0.0174433209107 0)
(-0.419660061321 -0.0205258107592 0)
(-0.425319951413 -0.0201122565756 0)
(-0.430416181795 -0.0185057755535 0)
(-0.434925871437 -0.0168166991551 0)
(-0.438730567743 -0.0147961537027 0)
(-0.44184741225 -0.0127621876022 0)
(-0.444310248183 -0.0107211495085 0)
(-0.446188223041 -0.00878081606916 0)
(-0.447551960403 -0.00696104759551 0)
(-0.448473443813 -0.00529159038752 0)
(-0.449017078352 -0.00377447709159 0)
(-0.44923980203 -0.00240911102066 0)
(-0.449190002228 -0.00118620589373 0)
(-0.448908537845 -9.47731862946e-05 0)
(-0.448429506984 0.000878271841233 0)
(-0.447781319333 0.00174604279497 0)
(-0.44698758219 0.00252145311928 0)
(-0.446067911443 0.00321662217656 0)
(-0.44503859222 0.00384277282281 0)
(-0.443913129766 0.00441011525725 0)
(-0.442702695283 0.00492787025455 0)
(-0.441416489709 0.00540430934631 0)
(-0.440062038836 0.00584683233371 0)
(-0.438645433682 0.00626204979847 0)
(-0.437171526124 0.00665587024604 0)
(-0.435644088036 0.00703358251799 0)
(-0.434065940239 0.00739993166457 0)
(-0.432439056005 0.0077591852706 0)
(-0.430764643103 0.00811518900496 0)
(-0.429043206669 0.00847140996343 0)
(-0.427274596318 0.00883096646933 0)
(-0.425458036728 0.00919664268185 0)
(-0.423592148721 0.00957088549345 0)
(-0.421674951171 0.009955780941 0)
(-0.419703870723 0.0103530047332 0)
(-0.417675711514 0.0107637432635 0)
(-0.41558670284 0.0111885727774 0)
(-0.413432401155 0.0116272984875 0)
(-0.411207969174 0.0120787206805 0)
(-0.408907793726 0.0125403707992 0)
(-0.406526771369 0.0130081055843 0)
(-0.404058464994 0.0134758090119 0)
(-0.401500585431 0.0139347369534 0)
(-0.398845735748 0.0143736609981 0)
(-0.396104794018 0.0147777138957 0)
(-0.393261545956 0.0151308207824 0)
(-0.390375658475 0.015412403348 0)
(-0.387365161149 0.0156081522743 0)
(-0.384471940523 0.0156968723153 0)
(-0.381173507458 0.0156991111699 0)
(-0.417592902403 -0.0179411400731 0)
(-0.422722701819 -0.0176357105416 0)
(-0.427424502611 -0.0163286799801 0)
(-0.43166923715 -0.0149379201146 0)
(-0.435337709763 -0.013246237497 0)
(-0.438419971562 -0.0115149187569 0)
(-0.440924766958 -0.00975320550183 0)
(-0.442895397531 -0.00805607377093 0)
(-0.444382333906 -0.00644697289108 0)
(-0.445441956229 -0.00495658681137 0)
(-0.446127894191 -0.00359159287781 0)
(-0.446489929452 -0.00235509183414 0)
(-0.446572108853 -0.00124178511128 0)
(-0.446412906263 -0.000243964070783 0)
(-0.446045373606 0.000648572465388 0)
(-0.445497735155 0.00144658353323 0)
(-0.444793941677 0.00216102285554 0)
(-0.443954250851 0.00280240816955 0)
(-0.442995734959 0.00338063987582 0)
(-0.44193273278 0.00390483516875 0)
(-0.440777234197 0.00438330221773 0)
(-0.439539208383 0.00482354407792 0)
(-0.438226880516 0.00523230574684 0)
(-0.436846965108 0.00561563303668 0)
(-0.435404861966 0.00597894054576 0)
(-0.433904820397 0.0063270787371 0)
(-0.432350076286 0.00666439724666 0)
(-0.430742965762 0.00699480081569 0)
(-0.429085018897 0.00732179605701 0)
(-0.427377035611 0.00764852725311 0)
(-0.425619147206 0.00797779958263 0)
(-0.4238108634 0.00831208800141 0)
(-0.421951112018 0.00865352931086 0)
(-0.420038263557 0.00900389491295 0)
(-0.418070166479 0.00936453958647 0)
(-0.416044151381 0.00973632373395 0)
(-0.413957112685 0.0101194993503 0)
(-0.411805467046 0.0105135637037 0)
(-0.40958546206 0.0109170557322 0)
(-0.407292894931 0.011327337817 0)
(-0.404924342204 0.0117402766678 0)
(-0.402475542687 0.0121500403839 0)