/*--------------------------------*- C++ -*----------------------------------*\
| =========                 |                                                 |
| \\      /  F ield         | OpenFOAM: The Open Source CFD Toolbox           |
|  \\    /   O peration     | Version:  2.4.0                                 |
|   \\  /    A nd           | Web:      www.OpenFOAM.org                      |
|    \\/     M anipulation  |                                                 |
\*---------------------------------------------------------------------------*/
FoamFile
{
    version     2.0;
    format      ascii;
    class       volVectorField;
    location    "0.3";
    object      U;
}
// * * * * * * * * * * * * * * * * * * * * * * * * * * * * * * * * * * * * * //

dimensions      [0 1 -1 0 0 0 0];

internalField   nonuniform List<vector> 
400
(
(-1.02505792014e-08 -1.07552855511e-16 0)
(-1.02505794269e-08 -1.07552855511e-16 0)
(-1.02505796039e-08 -6.59194920871e-17 0)
(-1.02505794304e-08 -3.12250225676e-17 0)
(-1.02505794582e-08 2.42861286637e-17 0)
(-1.02505794651e-08 1.38777878078e-16 0)
(-1.02505792882e-08 1.38777878078e-16 0)
(-1.02505794235e-08 1.45716771982e-16 0)
(-1.02505793402e-08 1.14491749414e-16 0)
(-1.025057925e-08 5.55111512313e-17 0)
(-1.02505791598e-08 5.55111512313e-17 0)
(-1.02505793471e-08 -1.21430643318e-16 0)
(-1.02505795345e-08 0 0)
(-1.02505794547e-08 1.00613961607e-16 0)
(-1.02505792812e-08 1.04083408559e-17 0)
(-1.02505793541e-08 0 0)
(-1.02505793714e-08 -1.38777878078e-17 0)
(-1.02505792986e-08 -9.71445146547e-17 0)
(-1.02505792708e-08 -2.08166817117e-17 0)
(-1.02505791563e-08 -7.6327832943e-17 0)
(-4.72910250335e-08 -2.35922392733e-16 0)
(-4.72910253804e-08 -6.93889390391e-17 0)
(-4.72910255435e-08 -1.73472347598e-17 0)
(-4.72910253249e-08 6.93889390391e-18 0)
(-4.7291025259e-08 6.93889390391e-18 0)
(-4.72910252035e-08 5.89805981832e-17 0)
(-4.7291025207e-08 1.52655665886e-16 0)
(-4.72910252278e-08 1.04083408559e-16 0)
(-4.72910251029e-08 7.6327832943e-17 0)
(-4.72910251029e-08 -4.85722573274e-17 0)
(-4.7291025148e-08 -9.71445146547e-17 0)
(-4.72910252694e-08 -2.42861286637e-16 0)
(-4.72910254359e-08 -2.18575157973e-16 0)
(-4.72910253735e-08 3.46944695195e-18 0)
(-4.72910253041e-08 -6.24500451352e-17 0)
(-4.72910253561e-08 -1.17961196366e-16 0)
(-4.72910251965e-08 -1.94289029309e-16 0)
(-4.72910251376e-08 -1.80411241502e-16 0)
(-4.72910250994e-08 -4.51028103754e-17 0)
(-4.72910250231e-08 -2.42861286637e-16 0)
(-1.35111742797e-07 -4.02455846427e-16 0)
(-1.35111743051e-07 -3.78169717763e-16 0)
(-1.3511174312e-07 -1.49186218934e-16 0)
(-1.35111743068e-07 -1.45716771982e-16 0)
(-1.35111742929e-07 -1.7694179455e-16 0)
(-1.35111742752e-07 -9.36750677028e-17 0)
(-1.35111742731e-07 -1.7694179455e-16 0)
(-1.35111742693e-07 -1.35308431126e-16 0)
(-1.35111742561e-07 -1.31838984174e-16 0)
(-1.35111742593e-07 -1.94289029309e-16 0)
(-1.35111742742e-07 -3.22658566532e-16 0)
(-1.35111742756e-07 -3.88578058619e-16 0)
(-1.35111742853e-07 -3.22658566532e-16 0)
(-1.35111742884e-07 -2.671474153e-16 0)
(-1.35111742943e-07 -3.64291929955e-16 0)
(-1.35111742901e-07 -3.67761376907e-16 0)
(-1.35111742725e-07 -3.1918911958e-16 0)
(-1.35111742742e-07 -3.22658566532e-16 0)
(-1.35111742763e-07 -3.78169717763e-16 0)
(-1.35111742763e-07 -4.16333634234e-16 0)
(-1.84489020241e-07 -4.16333634234e-16 0)
(-1.84489020297e-07 -5.16947595841e-16 0)
(-1.84489020283e-07 -2.63677968348e-16 0)
(-1.84489020227e-07 -3.43475248243e-16 0)
(-1.84489020227e-07 -3.15719672628e-16 0)
(-1.8448902012e-07 -2.22044604925e-16 0)
(-1.84489020012e-07 -2.53269627493e-16 0)
(-1.84489020057e-07 -1.94289029309e-16 0)
(-1.84489019849e-07 -3.50414142147e-16 0)
(-1.84489019964e-07 -3.78169717763e-16 0)
(-1.84489020196e-07 -5.34294830601e-16 0)
(-1.84489020196e-07 -5.27355936697e-16 0)
(-1.84489020207e-07 -4.6143644461e-16 0)
(-1.84489020231e-07 -4.2674197509e-16 0)
(-1.84489020255e-07 -4.47558656802e-16 0)
(-1.84489020245e-07 -4.54497550706e-16 0)
(-1.84489020207e-07 -5.75928194024e-16 0)
(-1.84489020231e-07 -5.93275428784e-16 0)
(-1.84489020165e-07 -6.55725473919e-16 0)
(-1.84489020127e-07 -5.82867087928e-16 0)
(2.29886576102e-07 -6.10622663544e-16 0)
(2.29886576046e-07 -5.06539254985e-16 0)
(2.29886576046e-07 -4.05925293379e-16 0)
(2.2988657615e-07 -4.82253126322e-16 0)
(2.29886576251e-07 -5.65519853168e-16 0)
(2.2988657641e-07 -4.54497550706e-16 0)
(2.29886576549e-07 -3.74700270811e-16 0)
(2.29886576452e-07 -3.29597460436e-16 0)
(2.29886576334e-07 -4.33680868994e-16 0)
(2.29886576237e-07 -5.72458747072e-16 0)
(2.29886576247e-07 -6.0368376964e-16 0)
(2.29886576109e-07 -6.38378239159e-16 0)
(2.29886576098e-07 -6.55725473919e-16 0)
(2.29886576105e-07 -6.38378239159e-16 0)
(2.29886576008e-07 -4.7878367937e-16 0)
(2.29886576043e-07 -5.79397640976e-16 0)
(2.29886576181e-07 -5.30825383649e-16 0)
(2.29886576112e-07 -6.73072708679e-16 0)
(2.29886576174e-07 -6.17561557448e-16 0)
(2.29886576216e-07 -6.83481049535e-16 0)
(1.9832383264e-06 -7.38992200766e-16 0)
(1.98323832627e-06 -5.72458747072e-16 0)
(1.98323832627e-06 -5.58580959265e-16 0)
(1.98323832623e-06 -6.07153216592e-16 0)
(1.98323832642e-06 -4.71844785466e-16 0)
(1.98323832656e-06 -5.16947595841e-16 0)
(1.9832383266e-06 -5.89805981832e-16 0)
(1.98323832652e-06 -5.13478148889e-16 0)
(1.98323832631e-06 -6.97358837343e-16 0)
(1.98323832624e-06 -7.14706072102e-16 0)
(1.9832383261e-06 -6.69603261727e-16 0)
(1.98323832611e-06 -6.210310044e-16 0)
(1.98323832631e-06 -6.48786580015e-16 0)
(1.9832383262e-06 -6.210310044e-16 0)
(1.98323832603e-06 -5.37764277553e-16 0)
(1.98323832626e-06 -4.40619762898e-16 0)
(1.98323832632e-06 -4.51028103754e-16 0)
(1.98323832619e-06 -5.03069808033e-16 0)
(1.98323832627e-06 -4.99600361081e-16 0)
(1.9832383264e-06 -6.69603261727e-16 0)
(5.57397328177e-06 -5.55111512313e-16 0)
(5.57397328167e-06 -7.25114412958e-16 0)
(5.57397328154e-06 -7.07767178199e-16 0)
(5.57397328156e-06 -6.73072708679e-16 0)
(5.57397328158e-06 -5.75928194024e-16 0)
(5.57397328159e-06 -6.0368376964e-16 0)
(5.57397328154e-06 -5.8633653488e-16 0)
(5.57397328145e-06 -5.6898930012e-16 0)
(5.57397328139e-06 -7.4593109467e-16 0)
(5.57397328145e-06 -6.52256026967e-16 0)
(5.57397328141e-06 -4.89192020225e-16 0)
(5.57397328143e-06 -4.85722573274e-16 0)
(5.57397328151e-06 -6.10622663544e-16 0)
(5.57397328149e-06 -6.14092110496e-16 0)
(5.57397328146e-06 -5.06539254985e-16 0)
(5.57397328141e-06 -3.81639164715e-16 0)
(5.57397328151e-06 -4.85722573274e-16 0)
(5.57397328153e-06 -4.75314232418e-16 0)
(5.57397328159e-06 -3.88578058619e-16 0)
(5.57397328168e-06 -5.65519853168e-16 0)
(7.88120748885e-06 -5.20417042793e-16 0)
(7.88120748881e-06 -9.19403442268e-16 0)
(7.88120748883e-06 -6.73072708679e-16 0)
(7.88120748885e-06 -7.8062556419e-16 0)
(7.88120748889e-06 -6.31439345256e-16 0)
(7.88120748896e-06 -7.70217223334e-16 0)
(7.8812074889e-06 -7.18175519054e-16 0)
(7.88120748865e-06 -7.07767178199e-16 0)
(7.88120748858e-06 -6.210310044e-16 0)
(7.88120748877e-06 -4.82253126322e-16 0)
(7.88120748874e-06 -4.7878367937e-16 0)
(7.88120748859e-06 -5.65519853168e-16 0)
(7.88120748874e-06 -6.73072708679e-16 0)
(7.88120748879e-06 -7.77156117238e-16 0)
(7.88120748862e-06 -5.96744875736e-16 0)
(7.88120748866e-06 -5.65519853168e-16 0)
(7.88120748875e-06 -4.75314232418e-16 0)
(7.88120748892e-06 -3.95516952523e-16 0)
(7.88120748895e-06 -5.10008701937e-16 0)
(7.88120748883e-06 -6.45317133063e-16 0)
(-4.05412369907e-06 -7.2858385991e-16 0)
(-4.05412369913e-06 -8.32667268469e-16 0)
(-4.05412369913e-06 -6.66133814775e-16 0)
(-4.05412369908e-06 -7.4593109467e-16 0)
(-4.05412369915e-06 -6.52256026967e-16 0)
(-4.05412369925e-06 -8.15320033709e-16 0)
(-4.05412369927e-06 -8.98586760556e-16 0)
(-4.05412369927e-06 -9.26342336172e-16 0)
(-4.05412369917e-06 -8.7083118494e-16 0)
(-4.05412369922e-06 -6.90419943439e-16 0)
(-4.05412369924e-06 -7.04297731247e-16 0)
(-4.05412369918e-06 -7.49400541622e-16 0)
(-4.05412369924e-06 -6.93889390391e-16 0)
(-4.05412369929e-06 -8.46545056277e-16 0)
(-4.0541236993e-06 -7.07767178199e-16 0)
(-4.05412369925e-06 -4.7878367937e-16 0)
(-4.05412369919e-06 -4.71844785466e-16 0)
(-4.05412369908e-06 -3.3653635434e-16 0)
(-4.05412369904e-06 -6.83481049535e-16 0)
(-4.05412369906e-06 -5.89805981832e-16 0)
(-5.75939302893e-05 -7.38992200766e-16 0)
(-5.75939302891e-05 -6.66133814775e-16 0)
(-5.75939302891e-05 -7.00828284295e-16 0)
(-5.75939302892e-05 -8.81239525796e-16 0)
(-5.75939302894e-05 -7.6327832943e-16 0)
(-5.75939302895e-05 -7.91033905045e-16 0)
(-5.75939302894e-05 -8.53483950181e-16 0)
(-5.75939302894e-05 -9.0552565446e-16 0)
(-5.75939302894e-05 -9.33281230076e-16 0)
(-5.75939302893e-05 -9.64506252643e-16 0)
(-5.75939302894e-05 -8.881784197e-16 0)
(-5.75939302895e-05 -7.73686670286e-16 0)
(-5.75939302896e-05 -7.14706072102e-16 0)
(-5.75939302895e-05 -7.73686670286e-16 0)
(-5.75939302895e-05 -7.8062556419e-16 0)
(-5.75939302895e-05 -5.62050406217e-16 0)
(-5.75939302894e-05 -5.27355936697e-16 0)
(-5.75939302893e-05 -4.40619762898e-16 0)
(-5.75939302893e-05 -5.65519853168e-16 0)
(-5.75939302893e-05 -5.48172618409e-16 0)
(-0.000181864924228 -6.34908792208e-16 0)
(-0.000181864924228 -6.93889390391e-16 0)
(-0.000181864924228 -8.01442245901e-16 0)
(-0.000181864924228 -7.56339435526e-16 0)
(-0.000181864924228 -8.39606162373e-16 0)
(-0.000181864924228 -9.0552565446e-16 0)
(-0.000181864924228 -9.50628464835e-16 0)
(-0.000181864924228 -9.0552565446e-16 0)
(-0.000181864924228 -8.77770078844e-16 0)
(-0.000181864924228 -9.47159017883e-16 0)
(-0.000181864924228 -8.95117313604e-16 0)
(-0.000181864924228 -8.50014503229e-16 0)
(-0.000181864924228 -7.8062556419e-16 0)
(-0.000181864924228 -7.94503351997e-16 0)
(-0.000181864924228 -7.42461647718e-16 0)
(-0.000181864924228 -6.97358837343e-16 0)
(-0.000181864924228 -5.79397640976e-16 0)
(-0.000181864924228 -6.76542155631e-16 0)
(-0.000181864924228 -6.14092110496e-16 0)
(-0.000181864924228 -6.55725473919e-16 0)
(-0.000350823973262 -7.56339435526e-16 0)
(-0.000350823973262 -7.49400541622e-16 0)
(-0.000350823973262 -7.2858385991e-16 0)
(-0.000350823973262 -6.00214322688e-16 0)
(-0.000350823973262 -8.15320033709e-16 0)
(-0.000350823973262 -9.64506252643e-16 0)
(-0.000350823973262 -1.0616507673e-15 0)
(-0.000350823973262 -8.53483950181e-16 0)
(-0.000350823973262 -8.01442245901e-16 0)
(-0.000350823973262 -9.15933995316e-16 0)
(-0.000350823973262 -8.25728374565e-16 0)
(-0.000350823973262 -8.91647866652e-16 0)
(-0.000350823973262 -8.60422844085e-16 0)
(-0.000350823973262 -7.8062556419e-16 0)
(-0.000350823973262 -8.29197821517e-16 0)
(-0.000350823973262 -7.70217223334e-16 0)
(-0.000350823973262 -6.210310044e-16 0)
(-0.000350823973262 -8.01442245901e-16 0)
(-0.000350823973262 -7.6327832943e-16 0)
(-0.000350823973262 -7.38992200766e-16 0)
(-0.000358234423364 -7.49400541622e-16 0)
(-0.000358234423364 -7.94503351997e-16 0)
(-0.000358234423364 -6.83481049535e-16 0)
(-0.000358234423364 -6.210310044e-16 0)
(-0.000358234423364 -7.94503351997e-16 0)
(-0.000358234423364 -8.04911692853e-16 0)
(-0.000358234423364 -8.22258927613e-16 0)
(-0.000358234423364 -8.22258927613e-16 0)
(-0.000358234423364 -8.7083118494e-16 0)
(-0.000358234423364 -8.15320033709e-16 0)
(-0.000358234423364 -8.56953397133e-16 0)
(-0.000358234423364 -8.04911692853e-16 0)
(-0.000358234423364 -8.11850586757e-16 0)
(-0.000358234423364 -7.21644966006e-16 0)
(-0.000358234423364 -8.29197821517e-16 0)
(-0.000358234423364 -6.90419943439e-16 0)
(-0.000358234423364 -7.32053306862e-16 0)
(-0.000358234423364 -8.881784197e-16 0)
(-0.000358234423364 -9.26342336172e-16 0)
(-0.000358234423364 -9.26342336172e-16 0)
(0.000361883356166 -8.22258927613e-16 0)
(0.000361883356166 -8.11850586757e-16 0)
(0.000361883356166 -8.7083118494e-16 0)
(0.000361883356166 -7.66747776382e-16 0)
(0.000361883356165 -7.04297731247e-16 0)
(0.000361883356165 -6.76542155631e-16 0)
(0.000361883356166 -7.73686670286e-16 0)
(0.000361883356165 -7.07767178199e-16 0)
(0.000361883356166 -6.62664367823e-16 0)
(0.000361883356166 -6.41847686111e-16 0)
(0.000361883356165 -8.50014503229e-16 0)
(0.000361883356166 -7.73686670286e-16 0)
(0.000361883356166 -7.14706072102e-16 0)
(0.000361883356166 -5.55111512313e-16 0)
(0.000361883356165 -7.07767178199e-16 0)
(0.000361883356166 -5.65519853168e-16 0)
(0.000361883356166 -6.62664367823e-16 0)
(0.000361883356165 -8.39606162373e-16 0)
(0.000361883356166 -9.88792381307e-16 0)
(0.000361883356166 -8.67361737988e-16 0)
(0.00288348090769 -7.2858385991e-16 0)
(0.00288348090769 -7.84095011142e-16 0)
(0.00288348090769 -7.8062556419e-16 0)
(0.00288348090769 -7.73686670286e-16 0)
(0.00288348090769 -6.31439345256e-16 0)
(0.00288348090769 -6.38378239159e-16 0)
(0.00288348090769 -7.59808882478e-16 0)
(0.00288348090769 -5.89805981832e-16 0)
(0.00288348090769 -4.7878367937e-16 0)
(0.00288348090769 -5.82867087928e-16 0)
(0.00288348090769 -8.53483950181e-16 0)
(0.00288348090769 -7.87564458093e-16 0)
(0.00288348090769 -7.38992200766e-16 0)
(0.00288348090769 -6.10622663544e-16 0)
(0.00288348090769 -5.62050406217e-16 0)
(0.00288348090769 -7.2858385991e-16 0)
(0.00288348090769 -7.25114412958e-16 0)
(0.00288348090769 -8.15320033709e-16 0)
(0.00288348090769 -9.12464548364e-16 0)
(0.00288348090769 -9.0552565446e-16 0)
(0.00875368152966 -6.73072708679e-16 0)
(0.00875368152966 -7.07767178199e-16 0)
(0.00875368152966 -7.66747776382e-16 0)
(0.00875368152966 -6.62664367823e-16 0)
(0.00875368152966 -7.18175519054e-16 0)
(0.00875368152966 -7.21644966006e-16 0)
(0.00875368152966 -6.62664367823e-16 0)
(0.00875368152966 -7.14706072102e-16 0)
(0.00875368152966 -4.51028103754e-16 0)
(0.00875368152966 -7.18175519054e-16 0)
(0.00875368152966 -8.08381139805e-16 0)
(0.00875368152966 -8.56953397133e-16 0)
(0.00875368152966 -9.12464548364e-16 0)
(0.00875368152966 -8.08381139805e-16 0)
(0.00875368152966 -6.24500451352e-16 0)
(0.00875368152966 -6.97358837343e-16 0)
(0.00875368152966 -7.25114412958e-16 0)
(0.00875368152966 -6.45317133063e-16 0)
(0.00875368152966 -6.90419943439e-16 0)
(0.00875368152966 -6.93889390391e-16 0)
(0.0196397795058 -6.62664367823e-16 0)
(0.0196397795058 -6.83481049535e-16 0)
(0.0196397795058 -5.6898930012e-16 0)
(0.0196397795058 -6.48786580015e-16 0)
(0.0196397795058 -5.37764277553e-16 0)
(0.0196397795058 -5.20417042793e-16 0)
(0.0196397795058 -6.80011602583e-16 0)
(0.0196397795058 -5.34294830601e-16 0)
(0.0196397795058 -6.07153216592e-16 0)
(0.0196397795058 -7.32053306862e-16 0)
(0.0196397795058 -7.18175519054e-16 0)
(0.0196397795058 -7.8062556419e-16 0)
(0.0196397795058 -8.74300631892e-16 0)
(0.0196397795058 -7.6327832943e-16 0)
(0.0196397795058 -6.76542155631e-16 0)
(0.0196397795058 -6.45317133063e-16 0)
(0.0196397795058 -7.11236625151e-16 0)
(0.0196397795058 -6.0368376964e-16 0)
(0.0196397795058 -5.34294830601e-16 0)
(0.0196397795058 -5.75928194024e-16 0)
(0.0366729339043 -5.20417042793e-16 0)
(0.0366729339043 -6.00214322688e-16 0)
(0.0366729339043 -4.09394740331e-16 0)
(0.0366729339043 -6.07153216592e-16 0)
(0.0366729339043 -5.82867087928e-16 0)
(0.0366729339043 -4.30211422042e-16 0)
(0.0366729339043 -4.54497550706e-16 0)
(0.0366729339043 -3.88578058619e-16 0)
(0.0366729339043 -6.17561557448e-16 0)
(0.0366729339043 -7.2858385991e-16 0)
(0.0366729339043 -6.10622663544e-16 0)
(0.0366729339043 -6.38378239159e-16 0)
(0.0366729339043 -5.55111512313e-16 0)
(0.0366729339043 -6.66133814775e-16 0)
(0.0366729339043 -6.73072708679e-16 0)
(0.0366729339043 -6.45317133063e-16 0)
(0.0366729339043 -6.73072708679e-16 0)
(0.0366729339043 -5.13478148889e-16 0)
(0.0366729339043 -4.6143644461e-16 0)
(0.0366729339043 -3.85108611667e-16 0)
(0.0597160138475 -2.70616862252e-16 0)
(0.0597160138475 -2.77555756156e-16 0)
(0.0597160138475 -2.56739074445e-16 0)
(0.0597160138475 -3.53883589099e-16 0)
(0.0597160138475 -4.92661467177e-16 0)
(0.0597160138475 -2.91433543964e-16 0)
(0.0597160138475 -2.08166817117e-16 0)
(0.0597160138475 -2.91433543964e-16 0)
(0.0597160138475 -2.49800180541e-16 0)
(0.0597160138475 -3.53883589099e-16 0)
(0.0597160138475 -4.02455846427e-16 0)
(0.0597160138475 -5.27355936697e-16 0)
(0.0597160138475 -4.92661467177e-16 0)
(0.0597160138475 -4.37150315946e-16 0)
(0.0597160138475 -4.64905891562e-16 0)
(0.0597160138475 -3.81639164715e-16 0)
(0.0597160138475 -4.71844785466e-16 0)
(0.0597160138475 -3.26128013484e-16 0)
(0.0597160138475 -3.26128013484e-16 0)
(0.0597160138475 -1.5959455979e-16 0)
(0.0871278214991 -9.71445146547e-17 0)
(0.0871278214991 -1.38777878078e-17 0)
(0.0871278214991 -6.93889390391e-18 0)
(0.0871278214991 -9.02056207508e-17 0)
(0.0871278214991 -9.71445146547e-17 0)
(0.0871278214991 -1.11022302463e-16 0)
(0.0871278214991 -4.85722573274e-17 0)
(0.0871278214991 -1.38777878078e-17 0)
(0.0871278214991 -8.32667268469e-17 0)
(0.0871278214991 -6.93889390391e-17 0)
(0.0871278214991 -9.71445146547e-17 0)
(0.0871278214991 -1.31838984174e-16 0)
(0.0871278214991 -1.94289029309e-16 0)
(0.0871278214991 -1.87350135406e-16 0)
(0.0871278214991 -7.6327832943e-17 0)
(0.0871278214991 -6.24500451352e-17 0)
(0.0871278214991 -8.32667268469e-17 0)
(0.0871278214991 -1.2490009027e-16 0)
(0.0871278214991 -1.66533453694e-16 0)
(0.0871278214991 -7.6327832943e-17 0)
)
;

boundaryField
{
    top
    {
        type            fixedValue;
        value           uniform (0.1 0 0);
    }
    bottom
    {
        type            fixedValue;
        value           uniform (0 0 0);
    }
    left
    {
        type            cyclic;
    }
    right
    {
        type            cyclic;
    }
    frontAndBack
    {
        type            empty;
    }
}


// ************************************************************************* //
