/*--------------------------------*- C++ -*----------------------------------*\
| =========                 |                                                 |
| \\      /  F ield         | OpenFOAM: The Open Source CFD Toolbox           |
|  \\    /   O peration     | Version:  2.4.0                                 |
|   \\  /    A nd           | Web:      www.OpenFOAM.org                      |
|    \\/     M anipulation  |                                                 |
\*---------------------------------------------------------------------------*/
FoamFile
{
    version     2.0;
    format      ascii;
    class       volScalarField;
    location    "700";
    object      rho;
}
// * * * * * * * * * * * * * * * * * * * * * * * * * * * * * * * * * * * * * //

dimensions      [1 -3 0 0 0 0 0];

internalField   nonuniform List<scalar> 
2500
(
0.809329456693
0.835331602016
0.851583439428
0.863025011399
0.871040934672
0.877416433572
0.882641069079
0.887133553468
0.891082998159
0.894630656606
0.897864405333
0.900849957051
0.903634878433
0.906255934207
0.908741639165
0.911114705204
0.91339337776
0.915592502954
0.917724243115
0.91979862742
0.921823957247
0.92380712056
0.925753834418
0.927668836247
0.929556035224
0.931418633308
0.933259222212
0.935079861181
0.936882138961
0.938667222347
0.940435892609
0.942188570217
0.943925326262
0.945645877551
0.947349555199
0.949035233575
0.950701177303
0.952344764727
0.953961937801
0.955546310685
0.957087564498
0.95856946186
0.959967754962
0.961251414507
0.962400424938
0.96344406577
0.964667384937
0.966645278278
0.971582800643
0.977523078224
0.822328278538
0.838373379965
0.850880645716
0.861238324007
0.869176653192
0.875787793403
0.881295742576
0.886050441568
0.890221094309
0.893952320024
0.897337757483
0.900449727601
0.903341022005
0.90605264752
0.908616376421
0.911057488053
0.913396252132
0.915649146457
0.917829668203
0.919948961972
0.922016280242
0.924039341014
0.926024603793
0.927977488333
0.929902549301
0.931803618187
0.933683920072
0.93554617138
0.937392663245
0.939225334375
0.94104583653
0.942855595844
0.944655872126
0.946447820462
0.948232554678
0.950011223402
0.951785084437
0.953555620501
0.955324616756
0.95709441394
0.9588680127
0.960650077056
0.962448075983
0.964277328924
0.966174495264
0.9682134645
0.970630948544
0.973712166158
0.978798464827
0.985017482442
0.842938581136
0.850367962718
0.857994806281
0.865457491087
0.871855799692
0.87757204872
0.882544611634
0.886964412664
0.890916086487
0.894499318569
0.897781189678
0.900818846553
0.903655587585
0.906326542521
0.908859622694
0.911277553694
0.913598853158
0.915838782866
0.918009978787
0.920122971845
0.922186575912
0.924208199321
0.926194089685
0.928149532252
0.930079011185
0.931986343279
0.933874790375
0.935747155983
0.937605870312
0.939453067651
0.941290659189
0.943120405088
0.944943987559
0.94676309087
0.948579483656
0.950395120488
0.952212224777
0.954033431836
0.955861798212
0.957701120699
0.959555696472
0.961432007717
0.963338735559
0.965297649351
0.967351870007
0.969623012588
0.972375953021
0.976221931541
0.982319031912
0.992344591306
0.86485818742
0.865006086783
0.867750600286
0.871837878543
0.876230997359
0.880659174499
0.88481227098
0.88868739616
0.892266037803
0.895585309409
0.898674925103
0.901569199326
0.904296850875
0.906883572382
0.909350913016
0.91171723888
0.913997991471
0.916206227583
0.918352972469
0.920447567984
0.922497943218
0.924510848351
0.926492045751
0.928446471456
0.930378370659
0.932291413529
0.934188795261
0.936073324382
0.937947502386
0.939813597921
0.941673717736
0.943529878192
0.945384077369
0.947238376471
0.94909498012
0.950956350982
0.952825295209
0.954705201366
0.956600101002
0.958515542123
0.960458556571
0.96244205045
0.964484378746
0.966632114412
0.968953540887
0.971650001135
0.974965799806
0.979731304549
0.986362417271
0.997995257268
0.8862793146
0.880702758755
0.879130676785
0.87995584703
0.882198514408
0.885111744614
0.888227099559
0.891364616926
0.89441120684
0.89733647534
0.9001282949
0.902793073349
0.905341030589
0.907785237149
0.91013845309
0.912412796829
0.914619172449
0.916767284166
0.918865637995
0.920921658528
0.92294180042
0.924931672998
0.92689615416
0.928839496998
0.930765425625
0.932677222217
0.934577806161
0.936469807501
0.938355636538
0.940237552508
0.942117733301
0.94399835175
0.945881658673
0.947770089158
0.949666378709
0.951573757132
0.953496126348
0.955438548014
0.957407498451
0.959412552911
0.961466455148
0.963592247019
0.965820163788
0.968220441789
0.970871127096
0.974015953764
0.977801911005
0.983110185592
0.98961426544
1.00096781487
0.905087347477
0.895565216733
0.890658265415
0.888754201697
0.889011584808
0.890418553279
0.892434748593
0.894748214065
0.897175002504
0.899624799331
0.902047038252
0.904420239171
0.906735463403
0.908992049272
0.911192898584
0.913342888395
0.915447531228
0.917512450497
0.919543022936
0.92154424605
0.923520676223
0.92547643069
0.927415213713
0.92934035988
0.931254883988
0.933161534933
0.935062851447
0.936961220003
0.938858935622
0.940758268278
0.942661536682
0.944571196784
0.946489944624
0.94842085741
0.950367552531
0.952334462307
0.954327084139
0.956352664812
0.958420507553
0.960544192843
0.962741186673
0.965041644537
0.967481136471
0.970139806161
0.973085076804
0.976560284697
0.980598166827
0.986013376883
0.992008061801
1.00206873315
0.920324509361
0.908614011875
0.901487667075
0.897542895422
0.896133971701
0.896178703603
0.897134315175
0.898611833338
0.900384047866
0.902315074343
0.904323521787
0.906363333453
0.908407929552
0.910443313268
0.912462480215
0.914462775951
0.916443956861
0.918407183056
0.920354340198
0.922287670015
0.924209541184
0.926122328714
0.92802835077
0.929929845794
0.931828973353
0.933727831634
0.935628486456
0.937533010112
0.93944352931
0.941362284241
0.943291699629
0.945234475873
0.947193697921
0.949172990763
0.9511766917
0.953210160445
0.955280037508
0.957395016409
0.959566068607
0.961808908335
0.964142934164
0.96660079139
0.969217394348
0.972071851592
0.975213455912
0.978861488551
0.982963224029
0.98821394947
0.993635991851
1.00223541573
0.931904483661
0.919447047533
0.911112239991
0.905808544164
0.90311252112
0.902013852345
0.902016072122
0.902704604884
0.903834266256
0.905240314201
0.906819810205
0.908507372343
0.910261702522
0.912056990031
0.913877093991
0.915712149431
0.917556241512
0.919406019315
0.92125976524
0.923116823473
0.92497722491
0.926841454572
0.928710304448
0.930584786114
0.932466082018
0.93435552448
0.936254594675
0.938164937973
0.940088393422
0.942027038516
0.943983248922
0.945959781493
0.947959875926
0.949987407274
0.952047050763
0.954144595879
0.956287180608
0.95848408107
0.960746815044
0.963091642429
0.965537921325
0.968117662732
0.970862147008
0.973843246605
0.977092393769
0.98079423363
0.9848456541
0.989811353296
0.994719535996
1.00205633544
0.940303895515
0.928100046242
0.919339992669
0.913259293375
0.909646501507
0.907645724254
0.906836170034
0.906818250131
0.907349230267
0.908251441875
0.90940954826
0.910744767688
0.912204616604
0.91375361086
0.915367736367
0.917030643412
0.918731145077
0.920461577416
0.922216696705
0.923992953479
0.925788001534
0.927600371048
0.929429247985
0.931274327824
0.933135719886
0.935013888288
0.93690961992
0.93882401423
0.940758491352
0.942714818922
0.944695156192
0.946702123681
0.948738891878
0.950809322779
0.952918119399
0.955071127721
0.957275536717
0.959540639435
0.961877818772
0.96430292453
0.966834214404
0.969501303893
0.972330716234
0.975384177122
0.978678218766
0.982361152166
0.986306394496
0.990962300148
0.995445812618
1.00180400043
0.946211485483
0.934836320503
0.926180069322
0.919767752581
0.91556120273
0.912889834503
0.911420879722
0.910796862347
0.910792359399
0.911230157318
0.911990618377
0.912987335702
0.914160267428
0.915466648246
0.916876105711
0.918366771929
0.919922791601
0.921532558359
0.923187521086
0.924881356747
0.926609397691
0.928368232504
0.930155426077
0.931969323316
0.93380891194
0.93567372856
0.937563797293
0.939479594599
0.941422035989
0.943392484217
0.945392776747
0.947425280274
0.949492964355
0.951599527683
0.953749528125
0.955948660155
0.958203914074
0.960524270232
0.962920575022
0.96540767592
0.968002107085
0.970730067001
0.973612939087
0.97670136668
0.980000150634
0.983624717728
0.987441652242
0.991807211561
0.995947502649
1.00157725253
0.950308978851
0.94000748201
0.931762760279
0.925327102851
0.92078506024
0.91764596272
0.915664192121
0.914538684924
0.914070767972
0.914093718984
0.914490194794
0.915171276983
0.916072759657
0.917146980301
0.918358797959
0.919681905903
0.921096499884
0.922587511741
0.924143400202
0.925755275823
0.927416281555
0.929121145174
0.930865855888
0.932647428731
0.934463732982
0.9363133681
0.938195576076
0.940110183234
0.942057566566
0.944038643582
0.946054882752
0.948108341471
0.95020172244
0.952338480056
0.954522925876
0.956760469488
0.959057729506
0.961423131793
0.963866684084
0.966401804337
0.969042882826
0.971812161456
0.974725899358
0.97782405403
0.981102523824
0.984649690192
0.988334216537
0.992444614781
0.996307807615
1.00139903239
0.953160409935
0.943962212811
0.936272602495
0.930005113962
0.925318977361
0.921877925965
0.919514060755
0.917986732748
0.917128685732
0.916790279494
0.916861394605
0.917254779147
0.917905027488
0.91876178241
0.919786675879
0.920950059422
0.922228945889
0.923605344024
0.925065099373
0.926597020817
0.92819224759
0.92984377685
0.931546112977
0.933295003887
0.935087242772
0.936920519173
0.938793308563
0.940704793294
0.942654809693
0.944643819758
0.946672903883
0.948743780485
0.950858842416
0.953021238785
0.955234950792
0.957504986726
0.959837439791
0.96223997535
0.964721517007
0.967293756517
0.969968694701
0.972764474287
0.975692546024
0.97878338335
0.982026359582
0.985489047358
0.989046238992
0.992938781246
0.996576747774
1.0012654841
0.955183447076
0.947000713614
0.939902823137
0.933906575706
0.929208095861
0.925592701071
0.922956671386
0.92111672319
0.919937912916
0.919291191276
0.919076955432
0.91921275847
0.919634419255
0.920290795981
0.921141699441
0.922155182942
0.923305834165
0.924573291904
0.925941190636
0.927396331539
0.928928065642
0.930527818396
0.932188726936
0.933905359222
0.935673496686
0.937489965692
0.939352507839
0.941259682226
0.943210794404
0.94520585009
0.947245529567
0.949331187427
0.951464866874
0.953649353695
0.955888219371
0.958185965706
0.960548029064
0.962981155681
0.965493016148
0.968093422555
0.970791920426
0.973602722575
0.976532996072
0.979605284372
0.982804346943
0.986182481614
0.989621925977
0.993330763151
0.996784178981
1.00116637411
0.95666413435
0.949359860322
0.942828764025
0.937146010742
0.932518809955
0.928822067227
0.926001956277
0.923925528465
0.922488416207
0.921583210449
0.921122655358
0.921031230257
0.921247820299
0.921722055111
0.922413136616
0.923287758631
0.924318791239
0.925484036524
0.926765317153
0.928147726565
0.929619053314
0.931169321768
0.932790431113
0.934475867358
0.936220474055
0.938020269165
0.939872299543
0.941774526749
0.94372573915
0.945725488169
0.947774044242
0.949872376015
0.952022141554
0.954225713162
0.956486187045
0.958807477541
0.961194271136
0.963652298563
0.966187895749
0.968808973097
0.97152270334
0.974339735526
0.977263575075
0.980310413305
0.983461866801
0.986759383417
0.990092583094
0.99364718736
0.996948277284
1.00109212903
0.957787628458
0.951216193806
0.945196667
0.939831353635
0.935323035711
0.931609072222
0.928672536861
0.926422198664
0.924780964049
0.923662355708
0.92299209586
0.922702802323
0.922737697515
0.923048362757
0.923594376883
0.924341874896
0.925262637395
0.926333118393
0.927533704955
0.928848072264
0.930262668939
0.931766289666
0.933349727738
0.935005488817
0.936727556199
0.938511197849
0.940352808423
0.942249780967
0.944200403737
0.946203779911
0.948259765626
0.950368928805
0.952532517414
0.954752455472
0.957031320373
0.959372389762
0.961779550929
0.964257483607
0.966811184237
0.969446738174
0.972169126898
0.97498589468
0.977897515816
0.980915249002
0.984018659593
0.987241661318
0.990480589604
0.993905818022
0.997080478774
1.00103551561
0.958669146612
0.952696493916
0.947122206274
0.942056283641
0.937689067529
0.933999345691
0.930996315119
0.928621847928
0.926822116427
0.92552975998
0.924683207269
0.92422367483
0.924099474035
0.924264952352
0.924680813505
0.925313278952
0.926133570547
0.927117222412
0.92824352603
0.929495006893
0.930856984975
0.932317191397
0.933865444009
0.935493370332
0.937194173037
0.938962431399
0.94079393405
0.942685538929
0.944635056536
0.946641154391
0.948703278107
0.950821590708
0.952996918874
0.955230721633
0.957525037668
0.959882489668
0.962306155792
0.964799679012
0.967366769261
0.970011827091
0.972737878508
0.975549841917
0.97844574537
0.981433104328
0.984490218565
0.987645849795
0.99080218201
0.994118895698
0.997188265582
1.00099151249
0.959378738585
0.953889824721
0.948693926719
0.943898155842
0.939677266662
0.936036245444
0.933002040252
0.93054190131
0.928621159419
0.927189178125
0.926196203436
0.925591932074
0.925330073203
0.925368221495
0.925668721852
0.926198367738
0.926928247193
0.927833333378
0.928892118247
0.930086218985
0.931400022212
0.932820352932
0.934336180131
0.935938354683
0.937619379642
0.939373209772
0.941195077892
0.94308134531
0.945029373304
0.947037413782
0.94910451469
0.951230441139
0.95341560116
0.955660989338
0.957968107192
0.960338930768
0.962775751128
0.965281225923
0.967857871295
0.970508578977
0.973234676905
0.976038913348
0.978917383267
0.981874811105
0.984888779779
0.987984562972
0.991069315356
0.994295112108
0.997276726422
1.00095675339
0.959958741533
0.954858131256
0.949978328051
0.945418895057
0.941338721443
0.937758553477
0.934716909592
0.932199957393
0.930188353425
0.928645600491
0.927532499381
0.926806695251
0.926427248066
0.926355193289
0.926554820183
0.926993825643
0.92764348199
0.928478487677
0.929476783258
0.930619288209
0.931889632186
0.933273880653
0.93476027487
0.936338988768
0.938001907502
0.939742427965
0.94155528115
0.943436375116
0.945382656444
0.947391988675
0.949463043568
0.9515952057
0.953788479673
0.956043411449
0.958360985317
0.960742560763
0.963189688675
0.965704119357
0.968287293194
0.970940785045
0.97366448232
0.976459373911
0.979320054926
0.982249198015
0.985224039267
0.988267505472
0.991290909217
0.994440795659
0.997349442311
1.00092900002
0.960435063782
0.955644469636
0.951024861742
0.946667104116
0.94271547289
0.939199666132
0.936165405388
0.933612629992
0.931533954463
0.929904493885
0.92869415753
0.927867736673
0.927389325244
0.927223357088
0.927336182177
0.927696590698
0.928276255039
0.929049813225
0.92999485354
0.931091775954
0.932323608948
0.933675792663
0.935135955093
0.936693690132
0.938340346629
0.940068832007
0.941873432584
0.943749650869
0.945694058654
0.947704164873
0.949778294381
0.951915477934
0.954115343075
0.956378016193
0.958703999735
0.96109408421
0.963549146104
0.966070124386
0.968657516194
0.971311774193
0.974031589937
0.976816550631
0.979660107206
0.982563442315
0.985503683055
0.98850218316
0.991473686996
0.994560640683
0.99740900153
1.00090675265
0.960824023199
0.956278936302
0.951870128368
0.947680411588
0.943841416363
0.940387563188
0.9373688176
0.934794935114
0.932667647103
0.930971352603
0.92968357307
0.928775285717
0.92821510866
0.927970646581
0.928010269527
0.92830392618
0.928823811072
0.929544648068
0.930443824681
0.931501367242
0.932699837743
0.934024172098
0.935461491998
0.937000904629
0.938633303274
0.940351175356
0.942148422189
0.944020192101
0.94596272673
0.94797321995
0.950049685946
0.952190836634
0.954395958599
0.956664798997
0.958997426593
0.961394124244
0.963855173607
0.9663808098
0.968970725845
0.971624441451
0.974339677358
0.9771149239
0.979942774002
0.982823341295
0.985733785593
0.98869440959
0.991622747515
0.994658169835
0.997457308951
1.00088899039
0.961136291234
0.956782731536
0.952541119661
0.948487601861
0.944743386892
0.941345128471
0.938345120325
0.935759968425
0.933598187302
0.931851390095
0.930503248101
0.929529888142
0.928903813232
0.928595432309
0.928574968093
0.92881348749
0.929283746896
0.929960640771
0.93082146318
0.931845982023
0.933016406999
0.934317277831
0.935735309123
0.93725921069
0.938879499634
0.940588313404
0.942379229927
0.944247097805
0.946187877241
0.948198491649
0.950276686852
0.952420898072
0.954630115352
0.956903756356
0.959241514594
0.961643237078
0.964108699891
0.966637548376
0.969228811937
0.971881256755
0.974591835878
0.977358199649
0.980172310267
0.983033525469
0.985919110765
0.988848670161
0.991741958569
0.994736036297
0.997495778644
1.00087500655
0.961379087495
0.957170849198
0.95305759598
0.949110363563
0.945442186841
0.942090587892
0.939109016485
0.936518737465
0.934333158057
0.932549299229
0.931155597433
0.930132270259
0.929454985376
0.929096489439
0.929028592106
0.929223352519
0.929654059379
0.930295809344
0.931125871352
0.932123842478
0.933271675555
0.934553609942
0.935956044946
0.937467378327
0.939077828823
0.94077925411
0.942564971838
0.944429587867
0.946368833114
0.948379409417
0.950458841684
0.952605336592
0.954817638918
0.957094894147
0.95943648696
0.961841908037
0.96431052362
0.966841506573
0.9694333614
0.972084268856
0.974790596266
0.977549370204
0.980352101881
0.983197626129
0.986063338898
0.98896838523
0.991834230383
0.994796226412
0.997525457914
1.00086430674
0.961557374966
0.957453813163
0.953433767456
0.949564637254
0.945953455409
0.942637945542
0.939672051627
0.937080079157
0.934878795744
0.933069058537
0.93164277565
0.930583204428
0.929868410473
0.929472943053
0.929369860084
0.929532020536
0.929933160424
0.930548566733
0.931355519056
0.932333507882
0.933464308473
0.93473194501
0.936122586687
0.937624400859
0.939227384146
0.940923184608
0.942704923823
0.944567023889
0.946505041343
0.948515508792
0.950595781822
0.952743891522
0.954958394084
0.957238225969
0.959582535427
0.961990541776
0.964461301249
0.966993632629
0.969585651027
0.972235109002
0.974937951701
0.977690765739
0.980484754491
0.983318405296
0.986169236267
0.989056099741
0.991901706182
0.994840197715
0.997547109143
1.00085654635
0.961674505731
0.957638774792
0.953679445015
0.949861602752
0.946288350478
0.942997360868
0.940042743711
0.937450625474
0.935239868322
0.933413780134
0.931966530859
0.930883386911
0.930144021046
0.929724205671
0.929597857345
0.92973839423
0.930119873327
0.930717727018
0.931509256229
0.932473890852
0.93359329513
0.934851354743
0.936234088626
0.937729512339
0.93932747527
0.941019485869
0.942798534612
0.944658920281
0.946596082011
0.948606438139
0.950687229634
0.952836368542
0.95505228315
0.957333768288
0.959679812372
0.962089451986
0.96456153562
0.967094646373
0.969686642065
0.972334995204
0.975035377793
0.977784096283
0.980572162964
0.983397853722
0.986238778863
0.989113617863
0.991945893842
0.994868972962
0.997561264223
1.0008514923
0.961732568348
0.957730186339
0.953800795379
0.950008361255
0.946454044273
0.943175441526
0.940226699355
0.937634794916
0.935419594338
0.933585598512
0.932128091784
0.931033339103
0.930281818744
0.929849920676
0.929711998474
0.929841757574
0.930213422275
0.930802503223
0.931586316319
0.932544264329
0.933657958234
0.934911215981
0.936289982338
0.937782197531
0.939377637596
0.941067741226
0.942845433232
0.944704950499
0.946641673119
0.948651961856
0.950732999851
0.952882639035
0.955099243092
0.957381535363
0.9597284237
0.962138852797
0.96461156699
0.96714503169
0.969736976816
0.97238473652
0.975083848753
0.977830483791
0.980615562557
0.983437261059
0.98627323876
0.989142094967
0.99196775396
0.994883202523
0.997568260067
1.00084899995
0.961732568348
0.957730186339
0.953800795379
0.950008361255
0.946454044273
0.943175441526
0.940226699355
0.937634794916
0.935419594338
0.933585598512
0.932128091784
0.931033339103
0.930281818744
0.929849920676
0.929711998474
0.929841757574
0.930213422275
0.930802503223
0.931586316319
0.932544264329
0.933657958234
0.934911215981
0.936289982338
0.937782197531
0.939377637596
0.941067741226
0.942845433232
0.944704950499
0.946641673119
0.948651961856
0.950732999851
0.952882639035
0.955099243092
0.957381535363
0.9597284237
0.962138852797
0.96461156699
0.96714503169
0.969736976816
0.97238473652
0.975083848753
0.977830483791
0.980615562557
0.983437261059
0.98627323876
0.989142094967
0.99196775396
0.994883202523
0.997568260067
1.00084899995
0.961674505731
0.957638774792
0.953679445015
0.949861602752
0.946288350478
0.942997360868
0.940042743711
0.937450625474
0.935239868322
0.933413780134
0.931966530859
0.930883386911
0.930144021046
0.929724205671
0.929597857345
0.92973839423
0.930119873327
0.930717727018
0.931509256229
0.932473890852
0.93359329513
0.934851354743
0.936234088626
0.937729512339
0.93932747527
0.941019485869
0.942798534612
0.944658920281
0.946596082011
0.948606438139
0.950687229634
0.952836368542
0.95505228315
0.957333768288
0.959679812372
0.962089451986
0.96456153562
0.967094646373
0.969686642065
0.972334995204
0.975035377793
0.977784096283
0.980572162964
0.983397853722
0.986238778863
0.989113617863
0.991945893842
0.994868972962
0.997561264223
1.0008514923
0.961557374966
0.957453813163
0.953433767456
0.949564637254
0.945953455409
0.942637945542
0.939672051627
0.937080079157
0.934878795744
0.933069058537
0.93164277565
0.930583204428
0.929868410473
0.929472943053
0.929369860084
0.929532020536
0.929933160424
0.930548566733
0.931355519056
0.932333507882
0.933464308473
0.93473194501
0.936122586687
0.937624400859
0.939227384146
0.940923184608
0.942704923823
0.944567023889
0.946505041343
0.948515508792
0.950595781822
0.952743891522
0.954958394084
0.957238225969
0.959582535427
0.961990541776
0.964461301249
0.966993632629
0.969585651027
0.972235109002
0.974937951701
0.977690765739
0.980484754491
0.983318405296
0.986169236267
0.989056099741
0.991901706182
0.994840197715
0.997547109143
1.00085654635
0.961379087495
0.957170849198
0.95305759598
0.949110363563
0.945442186841
0.942090587892
0.939109016485
0.936518737465
0.934333158057
0.932549299229
0.931155597433
0.930132270259
0.929454985376
0.929096489439
0.929028592106
0.929223352519
0.929654059379
0.930295809344
0.931125871352
0.932123842478
0.933271675555
0.934553609942
0.935956044946
0.937467378327
0.939077828823
0.94077925411
0.942564971838
0.944429587867
0.946368833114
0.948379409417
0.950458841684
0.952605336592
0.954817638918
0.957094894147
0.95943648696
0.961841908037
0.96431052362
0.966841506573
0.9694333614
0.972084268856
0.974790596266
0.977549370204
0.980352101881
0.983197626129
0.986063338898
0.98896838523
0.991834230383
0.994796226412
0.997525457914
1.00086430674
0.961136291234
0.956782731536
0.952541119661
0.948487601861
0.944743386892
0.941345128471
0.938345120325
0.935759968425
0.933598187302
0.931851390095
0.930503248101
0.929529888142
0.928903813232
0.928595432309
0.928574968093
0.92881348749
0.929283746896
0.929960640771
0.93082146318
0.931845982023
0.933016406999
0.934317277831
0.935735309123
0.93725921069
0.938879499634
0.940588313404
0.942379229927
0.944247097805
0.946187877241
0.948198491649
0.950276686852
0.952420898072
0.954630115352
0.956903756356
0.959241514594
0.961643237078
0.964108699891
0.966637548376
0.969228811937
0.971881256755
0.974591835878
0.977358199649
0.980172310267
0.983033525469
0.985919110765
0.988848670161
0.991741958569
0.994736036297
0.997495778644
1.00087500655
0.960824023199
0.956278936302
0.951870128368
0.947680411588
0.943841416363
0.940387563188
0.9373688176
0.934794935114
0.932667647103
0.930971352603
0.92968357307
0.928775285717
0.92821510866
0.927970646581
0.928010269527
0.92830392618
0.928823811072
0.929544648068
0.930443824681
0.931501367242
0.932699837743
0.934024172098
0.935461491998
0.937000904629
0.938633303274
0.940351175356
0.942148422189
0.944020192101
0.94596272673
0.94797321995
0.950049685946
0.952190836634
0.954395958599
0.956664798997
0.958997426593
0.961394124244
0.963855173607
0.9663808098
0.968970725845
0.971624441451
0.974339677358
0.9771149239
0.979942774002
0.982823341295
0.985733785593
0.98869440959
0.991622747515
0.994658169835
0.997457308951
1.00088899039
0.960435063782
0.955644469636
0.951024861742
0.946667104116
0.94271547289
0.939199666132
0.936165405388
0.933612629992
0.931533954463
0.929904493885
0.92869415753
0.927867736673
0.927389325244
0.927223357088
0.927336182177
0.927696590698
0.928276255039
0.929049813225
0.92999485354
0.931091775954
0.932323608948
0.933675792663
0.935135955093
0.936693690132
0.938340346629
0.940068832007
0.941873432584
0.943749650869
0.945694058654
0.947704164873
0.949778294381
0.951915477934
0.954115343075
0.956378016193
0.958703999735
0.96109408421
0.963549146104
0.966070124386
0.968657516194
0.971311774193
0.974031589937
0.976816550631
0.979660107206
0.982563442315
0.985503683055
0.98850218316
0.991473686996
0.994560640683
0.99740900153
1.00090675265
0.959958741533
0.954858131256
0.949978328051
0.945418895057
0.941338721443
0.937758553477
0.934716909592
0.932199957393
0.930188353425
0.928645600491
0.927532499381
0.926806695251
0.926427248066
0.926355193289
0.926554820183
0.926993825643
0.92764348199
0.928478487677
0.929476783258
0.930619288209
0.931889632186
0.933273880653
0.93476027487
0.936338988768
0.938001907502
0.939742427965
0.94155528115
0.943436375116
0.945382656444
0.947391988675
0.949463043568
0.9515952057
0.953788479673
0.956043411449
0.958360985317
0.960742560763
0.963189688675
0.965704119357
0.968287293194
0.970940785045
0.97366448232
0.976459373911
0.979320054926
0.982249198015
0.985224039267
0.988267505472
0.991290909217
0.994440795659
0.997349442311
1.00092900002
0.959378738585
0.953889824721
0.948693926719
0.943898155842
0.939677266662
0.936036245444
0.933002040252
0.93054190131
0.928621159419
0.927189178125
0.926196203436
0.925591932074
0.925330073203
0.925368221495
0.925668721852
0.926198367738
0.926928247193
0.927833333378
0.928892118247
0.930086218985
0.931400022212
0.932820352932
0.934336180131
0.935938354683
0.937619379642
0.939373209772
0.941195077892
0.94308134531
0.945029373304
0.947037413782
0.94910451469
0.951230441139
0.95341560116
0.955660989338
0.957968107192
0.960338930768
0.962775751128
0.965281225923
0.967857871295
0.970508578977
0.973234676905
0.976038913348
0.978917383267
0.981874811105
0.984888779779
0.987984562972
0.991069315356
0.994295112108
0.997276726422
1.00095675339
0.958669146612
0.952696493916
0.947122206274
0.942056283641
0.937689067529
0.933999345691
0.930996315119
0.928621847928
0.926822116427
0.92552975998
0.924683207269
0.92422367483
0.924099474035
0.924264952352
0.924680813505
0.925313278952
0.926133570547
0.927117222412
0.92824352603
0.929495006893
0.930856984975
0.932317191397
0.933865444009
0.935493370332
0.937194173037
0.938962431399
0.94079393405
0.942685538929
0.944635056536
0.946641154391
0.948703278107
0.950821590708
0.952996918874
0.955230721633
0.957525037668
0.959882489668
0.962306155792
0.964799679012
0.967366769261
0.970011827091
0.972737878508
0.975549841917
0.97844574537
0.981433104328
0.984490218565
0.987645849795
0.99080218201
0.994118895698
0.997188265582
1.00099151249
0.957787628458
0.951216193806
0.945196667
0.939831353635
0.935323035711
0.931609072222
0.928672536861
0.926422198664
0.924780964049
0.923662355708
0.92299209586
0.922702802323
0.922737697515
0.923048362757
0.923594376883
0.924341874896
0.925262637395
0.926333118393
0.927533704955
0.928848072264
0.930262668939
0.931766289666
0.933349727738
0.935005488817
0.936727556199
0.938511197849
0.940352808423
0.942249780967
0.944200403737
0.946203779911
0.948259765626
0.950368928805
0.952532517414
0.954752455472
0.957031320373
0.959372389762
0.961779550929
0.964257483607
0.966811184237
0.969446738174
0.972169126898
0.97498589468
0.977897515816
0.980915249002
0.984018659593
0.987241661318
0.990480589604
0.993905818022
0.997080478774
1.00103551561
0.95666413435
0.949359860322
0.942828764025
0.937146010742
0.932518809955
0.928822067227
0.926001956277
0.923925528465
0.922488416207
0.921583210449
0.921122655358
0.921031230257
0.921247820299
0.921722055111
0.922413136616
0.923287758631
0.924318791239
0.925484036524
0.926765317153
0.928147726565
0.929619053314
0.931169321768
0.932790431113
0.934475867358
0.936220474055
0.938020269165
0.939872299543
0.941774526749
0.94372573915
0.945725488169
0.947774044242
0.949872376015
0.952022141554
0.954225713162
0.956486187045
0.958807477541
0.961194271136
0.963652298563
0.966187895749
0.968808973097
0.97152270334
0.974339735526
0.977263575075
0.980310413305
0.983461866801
0.986759383417
0.990092583094
0.99364718736
0.996948277284
1.00109212903
0.955183447076
0.947000713614
0.939902823137
0.933906575706
0.929208095861
0.925592701071
0.922956671386
0.92111672319
0.919937912916
0.919291191276
0.919076955432
0.91921275847
0.919634419255
0.920290795981
0.921141699441
0.922155182942
0.923305834165
0.924573291904
0.925941190636
0.927396331539
0.928928065642
0.930527818396
0.932188726936
0.933905359222
0.935673496686
0.937489965692
0.939352507839
0.941259682226
0.943210794404
0.94520585009
0.947245529567
0.949331187427
0.951464866874
0.953649353695
0.955888219371
0.958185965706
0.960548029064
0.962981155681
0.965493016148
0.968093422555
0.970791920426
0.973602722575
0.976532996072
0.979605284372
0.982804346943
0.986182481614
0.989621925977
0.993330763151
0.996784178981
1.00116637411
0.953160409935
0.943962212811
0.936272602495
0.930005113962
0.925318977361
0.921877925965
0.919514060755
0.917986732748
0.917128685732
0.916790279494
0.916861394605
0.917254779147
0.917905027488
0.91876178241
0.919786675879
0.920950059422
0.922228945889
0.923605344024
0.925065099373
0.926597020817
0.92819224759
0.92984377685
0.931546112977
0.933295003887
0.935087242772
0.936920519173
0.938793308563
0.940704793294
0.942654809693
0.944643819758
0.946672903883
0.948743780485
0.950858842416
0.953021238785
0.955234950792
0.957504986726
0.959837439791
0.96223997535
0.964721517007
0.967293756517
0.969968694701
0.972764474287
0.975692546024
0.97878338335
0.982026359582
0.985489047358
0.989046238992
0.992938781246
0.996576747774
1.0012654841
0.950308978851
0.94000748201
0.931762760279
0.925327102851
0.92078506024
0.91764596272
0.915664192121
0.914538684924
0.914070767972
0.914093718984