/*--------------------------------*- C++ -*----------------------------------*\
| =========                 |                                                 |
| \\      /  F ield         | OpenFOAM: The Open Source CFD Toolbox           |
|  \\    /   O peration     | Version:  2.4.0                                 |
|   \\  /    A nd           | Web:      www.OpenFOAM.org                      |
|    \\/     M anipulation  |                                                 |
\*---------------------------------------------------------------------------*/
FoamFile
{
    version     2.0;
    format      ascii;
    class       volScalarField;
    location    "700";
    object      rho;
}
// * * * * * * * * * * * * * * * * * * * * * * * * * * * * * * * * * * * * * //

dimensions      [1 -3 0 0 0 0 0];

internalField   nonuniform List<scalar> 
2500
(
1.00001762995
1.00001819807
1.00001822628
1.00001814248
1.00001794078
1.00001767113
1.00001735608
1.00001701327
1.00001665245
1.00001627957
1.00001589822
1.00001551069
1.00001511852
1.00001472284
1.00001432444
1.00001392395
1.00001352182
1.00001311841
1.00001271402
1.00001230885
1.00001190309
1.00001149687
1.00001109031
1.00001068349
1.0000102765
1.00000986939
1.00000946224
1.00000905511
1.00000864806
1.00000824118
1.00000783455
1.00000742831
1.0000070226
1.00000661761
1.0000062136
1.00000581089
1.0000054099
1.0000050112
1.00000461555
1.00000422399
1.000003838
1.00000345983
1.00000309296
1.00000274337
1.00000242124
1.00000214566
1.00000194451
1.00000187854
1.00000197589
1.00000266572
1.00001810283
1.00001834992
1.00001821128
1.00001803499
1.00001779396
1.00001751715
1.00001721013
1.00001688116
1.0000165354
1.00001617691
1.00001580863
1.00001543274
1.00001505087
1.00001466428
1.00001427393
1.00001388056
1.00001348479
1.00001308707
1.00001268781
1.0000122873
1.00001188582
1.00001148357
1.00001108075
1.00001067752
1.00001027403
1.0000098704
1.00000946678
1.00000906331
1.00000866011
1.00000825736
1.00000785524
1.00000745396
1.00000705378
1.00000665502
1.00000625805
1.00000586337
1.00000547159
1.0000050835
1.00000470012
1.00000432279
1.00000395329
1.00000359405
1.00000324836
1.0000029209
1.00000261785
1.000002349
1.00000212319
1.0000019718
1.00000188196
1.00000217433
1.00001853404
1.00001852987
1.00001830968
1.00001808281
1.00001781344
1.00001752008
1.00001720416
1.00001687074
1.0000165231
1.00001616416
1.00001579621
1.00001542106
1.00001504014
1.00001465457
1.00001426526
1.00001387291
1.0000134781
1.00001308131
1.00001268291
1.00001228323
1.00001188253
1.00001148102
1.00001107892
1.00001067639
1.00001027358
1.00000987064
1.00000946772
1.00000906496
1.00000866251
1.00000826055
1.00000785926
1.00000745888
1.00000705967
1.00000666195
1.00000626612
1.00000587265
1.00000548215
1.00000509538
1.00000471331
1.00000433717
1.00000396852
1.00000360943
1.00000326252
1.0000029312
1.00000261954
1.00000233355
1.00000207675
1.00000186806
1.0000016811
1.0000016987
1.00001885763
1.00001869384
1.00001841323
1.00001814121
1.00001784397
1.00001753207
1.00001720467
1.00001686441
1.00001651301
1.00001615227
1.00001578373
1.00001540873
1.0000150284
1.00001464367
1.00001425532
1.00001386399
1.00001347021
1.00001307444
1.00001267703
1.0000122783
1.00001187852
1.00001147791
1.00001107668
1.000010675
1.00001027304
1.00000987095
1.00000946888
1.000009067
1.00000866547
1.00000826446
1.00000786418
1.00000746486
1.00000706676
1.00000667022
1.00000627561
1.00000588341
1.00000549417
1.0000051086
1.00000472755
1.00000435205
1.00000398339
1.0000036231
1.000003273
1.00000293526
1.0000026121
1.00000230667
1.00000201933
1.00000176
1.00000150123
1.00000134454
1.00001911189
1.00001884472
1.00001852244
1.00001821442
1.00001789335
1.00001756388
1.00001722412
1.00001687521
1.00001651791
1.00001615324
1.00001578217
1.00001540561
1.0000150244
1.00001463926
1.00001425082
1.00001385961
1.00001346611
1.0000130707
1.00001267371
1.00001227545
1.00001187616
1.00001147605
1.00001107533
1.00001067417
1.00001027273
1.00000987116
1.00000946963
1.00000906829
1.0000086673
1.00000826684
1.00000786711
1.00000746833
1.00000707076
1.00000667469
1.00000628049
1.00000588856
1.00000549941
1.00000511362
1.00000473189
1.00000435503
1.00000398398
1.00000361982
1.0000032637
1.00000291689
1.00000258044
1.00000225575
1.00000194167
1.00000164195
1.00000133364
1.00000106643
1.00001931235
1.00001897705
1.00001862543
1.00001828874
1.00001794728
1.00001760191
1.00001725033
1.00001689263
1.00001652892
1.00001615963
1.00001578531
1.0000154065
1.00001502379
1.00001463768
1.00001424867
1.00001385719
1.0000134636
1.00001306826
1.00001267145
1.00001227344
1.00001187445
1.00001147468
1.00001107432
1.00001067354
1.0000102725
1.00000987134
1.00000947021
1.00000906928
1.00000866868
1.00000826861
1.00000786923
1.00000747077
1.00000707345
1.00000667755
1.00000628338
1.00000589129
1.00000550169
1.00000511507
1.00000473195
1.00000435292
1.00000397864
1.00000360978
1.00000324698
1.00000289084
1.00000254163
1.00000219955
1.00000186272
1.00000153109
1.00000118789
1.00000084916
1.0000194744
1.000019093
1.00001872089
1.00001836201
1.00001800367
1.0000176444
1.00001728195
1.00001691575
1.00001654549
1.00001617123
1.00001579315
1.00001541157
1.00001502682
1.00001463925
1.00001424921
1.00001385703
1.00001346301
1.00001306742
1.0000126705
1.00001227249
1.00001187358
1.00001147395
1.00001107377
1.00001067319
1.00001027237
1.00000987145
1.00000947056
1.00000906984
1.00000866945
1.00000826955
1.0000078703
1.00000747188
1.00000707452
1.00000667844
1.0000062839
1.00000589119
1.00000550064
1.00000511261
1.00000472748
1.00000434565
1.00000396753
1.00000359347
1.00000322376
1.00000285852
1.00000249753
1.00000214025
1.00000178466
1.00000142849
1.00000106097
1.00000067515
1.00001960791
1.00001919428
1.00001880764
1.00001843169
1.00001805954
1.00001768836
1.0000173162
1.00001694211
1.00001656554
1.00001618627
1.00001580427
1.00001541965
1.00001503256
1.00001464322
1.00001425185
1.00001385869
1.00001346396
1.00001306787
1.00001267063
1.00001227242
1.0000118734
1.00001147374
1.00001107358
1.00001067306
1.00001027232
1.00000987149
1.00000947069
1.00000907004
1.0000086697
1.00000826979
1.00000787047
1.00000747189
1.00000707425
1.00000667772
1.00000628252
1.00000588888
1.00000549703
1.00000510723
1.00000471974
1.0000043348
1.00000395261
1.00000357331
1.0000031969
1.00000282321
1.00000245173
1.0000020815
1.00000171067
1.00000133579
1.00000095114
1.00000053344
1.00001971991
1.00001928301
1.00001888595
1.00001849685
1.00001811352
1.00001773228
1.0000173516
1.00001697035
1.00001658786
1.00001620375
1.00001581783
1.00001543006
1.00001504047
1.00001464916
1.00001425625
1.00001386189
1.00001346625
1.00001306947
1.00001267172
1.00001227313
1.00001187385
1.00001147401
1.00001107373
1.00001067313
1.00001027234
1.00000987146
1.00000947061
1.0000090699
1.00000866945
1.00000826938
1.00000786982
1.0000074709
1.00000707277
1.00000667558
1.00000627949
1.00000588467
1.00000549128
1.00000509949
1.00000470945
1.00000432126
1.00000393499
1.0000035506
1.00000316792
1.0000027866
1.00000240597
1.00000202488
1.00000164182
1.00000125274
1.00000085592
1.00000041606
1.00001981522
1.00001936097
1.00001895631
1.00001855703
1.00001816468
1.00001777502
1.00001738696
1.00001699932
1.0000166114
1.00001622273
1.00001583302
1.00001544212
1.00001504998
1.00001465659
1.00001426202
1.00001386633
1.00001346963
1.00001307201
1.0000126736
1.00001227451
1.00001187483
1.00001147468
1.00001107416
1.00001067337
1.0000102724
1.00000987137
1.00000947035
1.00000906945
1.00000866877
1.00000826841
1.00000786847
1.00000746906
1.00000707029
1.00000667228
1.00000627514
1.00000587898
1.00000548391
1.00000509001
1.00000469735
1.00000430593
1.00000391571
1.00000352654
1.00000313815
1.00000275005
1.00000236156
1.00000197147
1.00000157866
1.00000117877
1.0000007732
1.0000003175
1.00001989726
1.00001942968
1.00001901939
1.00001861217
1.00001821253
1.00001781585
1.00001742146
1.00001702818
1.00001663536
1.00001624247
1.00001584918
1.00001545526
1.00001506059
1.00001466511
1.00001426881
1.00001387171
1.00001347385
1.0000130753
1.00001267613
1.00001227642
1.00001187624
1.00001147568
1.00001107482
1.00001067373
1.0000102725
1.00000987121
1.00000946993
1.00000906874
1.00000866772
1.00000826696
1.00000786653
1.00000746652
1.000007067
1.00000666806
1.00000626976
1.00000587218
1.00000547535
1.00000507932
1.00000468406
1.00000428953
1.00000389559
1.00000350203
1.0000031085
1.0000027145
1.00000231933
1.00000192183
1.00000152125
1.00000111308
1.00000070113
1.0000002338
1.00001996847
1.00001949039
1.00001907587
1.00001866239
1.00001825684
1.00001785432
1.00001745452
1.00001705632
1.00001665912
1.00001626239
1.00001586576
1.00001546899
1.00001507188
1.00001467434
1.00001427631
1.00001387776
1.0000134787
1.00001307915
1.00001267915
1.00001227875
1.000011878
1.00001147695
1.00001107566
1.0000106742
1.00001027263
1.000009871
1.00000946937
1.00000906781
1.00000866638
1.00000826513
1.00000786413
1.00000746343
1.00000706309
1.00000666314
1.00000626363
1.00000586459
1.00000546601
1.00000506788
1.00000467013
1.00000427265
1.00000387528
1.00000347774
1.00000307968
1.00000268056
1.00000227976
1.00000187619
1.00000146943
1.00000105488
1.00000063822
1.00000016214
1.00002003063
1.00001954411
1.00001912635
1.00001870788
1.00001829753
1.00001789015
1.00001748575
1.00001708328
1.0000166822
1.00001628201
1.00001588233
1.00001548289
1.00001508348
1.00001468396
1.00001428423
1.00001388424
1.00001348396
1.00001308339
1.00001268252
1.00001228138
1.00001188
1.0000114784
1.00001107664
1.00001067475
1.00001027276
1.00000987073
1.0000094687
1.00000906671
1.0000086648
1.00000826301
1.00000786139
1.00000745995
1.00000705873
1.00000665776
1.00000625702
1.00000585652
1.00000545623
1.00000505608
1.00000465598
1.00000425579
1.00000385529
1.0000034542
1.00000305216
1.00000264866
1.00000224314
1.00000183459
1.0000014229
1.0000010034
1.00000058321
1.0000001004
1.00002008508
1.00001959164
1.00001917137
1.00001874888
1.00001833462
1.00001792319
1.00001751489
1.00001710873
1.00001670425
1.00001630096
1.00001589852
1.00001549662
1.00001509506
1.00001469367
1.00001429232
1.00001389093
1.00001348945
1.00001308785
1.0000126861
1.0000122842
1.00001188216
1.00001147999
1.0000110777
1.00001067534
1.0000102729
1.00000987044
1.00000946796
1.00000906549
1.00000866307
1.0000082607
1.00000785841
1.00000745622
1.00000705411
1.0000066521
1.00000625016
1.00000584825
1.00000544632
1.00000504428
1.000004642
1.00000423931
1.00000383601
1.00000343179
1.0000030263
1.00000261906
1.0000022096
1.00000179698
1.00000138134
1.00000095795
1.00000053509
1.00000004701
1.00002013281
1.00001963363
1.00001921139
1.00001878565
1.00001836818
1.00001795337
1.00001754176
1.00001713243
1.00001672498
1.00001631896
1.00001591404
1.00001550991
1.00001510637
1.00001470323
1.00001430036
1.00001389764
1.000013495
1.00001309239
1.00001268977
1.00001228711
1.0000118844
1.00001148163
1.00001107881
1.00001067595
1.00001027304
1.00000987011
1.00000946716
1.0000090642
1.00000866123
1.00000825827
1.00000785532
1.00000745236
1.00000704938
1.00000664636
1.00000624326
1.00000584001
1.00000543654
1.00000503274
1.00000462847
1.00000422355
1.00000381775
1.00000341078
1.00000300232
1.00000259192
1.00000217917
1.00000176323
1.00000134442
1.00000091796
1.00000049306
1.00000000079
1.00002017458
1.0000196706
1.0000192468
1.00001881841
1.00001839829
1.00001798067
1.00001756627
1.00001715423
1.0000167442
1.00001633579
1.00001592865
1.00001552253
1.00001511719
1.00001471245
1.00001430816
1.00001390419
1.00001350046
1.00001309688
1.00001269342
1.00001229001
1.00001188664
1.00001148329
1.00001107993
1.00001067656
1.00001027318
1.00000986977
1.00000946634
1.00000906287
1.00000865937
1.00000825582
1.0000078522
1.0000074485
1.00000704468
1.00000664069
1.00000623649
1.00000583199
1.0000054271
1.0000050217
1.00000461564
1.00000420872
1.00000380073
1.00000339139
1.00000298038
1.00000256731
1.00000215183
1.00000173317
1.00000131181
1.00000088292
1.00000045644
0.999999960801
1.00002021098
1.00001970297
1.00001927792
1.00001884735
1.00001842506
1.0000180051
1.00001758835
1.000017174
1.00001676176
1.00001635125
1.00001594219
1.00001553429
1.00001512734
1.00001472115
1.00001431556
1.00001391044
1.00001350569
1.00001310122
1.00001269695
1.00001229284
1.00001188884
1.00001148491
1.00001108102
1.00001067716
1.0000102733
1.00000986942
1.00000946552
1.00000906156
1.00000865753
1.0000082534
1.00000784915
1.00000744474
1.00000704012
1.00000663523
1.00000623001
1.00000582437
1.00000541819
1.00000501135
1.00000460369
1.00000419503
1.00000378513
1.00000337374
1.00000296057
1.00000254526
1.00000212753
1.00000170664
1.00000128323
1.0000008524
1.0000004247
0.999999926328
1.00002024246
1.00001973107
1.00001930502
1.00001887267
1.00001844859
1.00001802669
1.00001760798
1.00001719167
1.00001677754
1.00001636524
1.00001595449
1.00001554504
1.00001513667
1.00001472918
1.00001432243
1.00001391628
1.00001351059
1.00001310529
1.00001270029
1.00001229551
1.00001189092
1.00001148644
1.00001108206
1.00001067772
1.00001027341
1.00000986909
1.00000946472
1.00000906029
1.00000865576
1.00000825109
1.00000784625
1.00000744118
1.00000703582
1.00000663011
1.00000622397
1.00000581729
1.00000540996
1.00000500185
1.00000459279
1.0000041826
1.00000377107
1.00000335794
1.00000294295
1.00000252578
1.00000210619
1.00000168349
1.00000125843
1.00000082605
1.0000003974
0.999999896803
1.00002026938
1.00001975517
1.00001932832
1.00001889452
1.00001846897
1.00001804547
1.00001762513
1.00001720719
1.00001679147
1.00001637764
1.00001596545
1.00001555465
1.00001514505
1.00001473644
1.00001432866
1.00001392158
1.00001351507
1.00001310902
1.00001270335
1.00001229798
1.00001189283
1.00001148786
1.00001108302
1.00001067824
1.00001027351
1.00000986877
1.00000946398
1.00000905911
1.00000865412
1.00000824895
1.00000784356
1.00000743789
1.00000703187
1.00000662542
1.00000621846
1.00000581087
1.00000540254
1.00000499332
1.00000458306
1.00000417157
1.00000375864
1.00000334405
1.00000292755
1.00000250884
1.00000208772
1.00000166356
1.00000123718
1.00000080356
1.00000037417
0.999999871776
1.00002029203
1.00001977548
1.000019348
1.00001891302
1.00001848629
1.00001806148
1.00001763981
1.00001722052
1.00001680348
1.00001638838
1.00001597497
1.00001556305
1.00001515239
1.00001474281
1.00001433416
1.00001392627
1.00001351904
1.00001311234
1.00001270608
1.00001230018
1.00001189455
1.00001148914
1.00001108387
1.00001067871
1.00001027359
1.00000986847
1.00000946331
1.00000905804
1.00000865263
1.00000824702
1.00000784115
1.00000743495
1.00000702835
1.00000662126
1.00000621358
1.00000580521
1.00000539601
1.00000498586
1.00000457457
1.00000416199
1.00000374791
1.00000333211
1.00000291436
1.0000024944
1.00000207206
1.00000164673
1.00000121929
1.0000007847
1.00000035473
0.999999850891
1.0000203106
1.00001979218
1.0000193642
1.00001892829
1.00001850061
1.00001807477
1.00001765202
1.00001723165
1.00001681354
1.00001639739
1.000015983
1.00001557014
1.00001515861
1.00001474823
1.00001433884
1.00001393029
1.00001352244
1.00001311519
1.00001270844
1.00001230207
1.00001189603
1.00001149023
1.00001108461
1.0000106791
1.00001027366
1.00000986821
1.00000946272
1.00000905711
1.00000865135
1.00000824535
1.00000783907
1.00000743242
1.00000702532
1.00000661769
1.00000620941
1.00000580038
1.00000539047
1.00000497953
1.00000456742
1.00000415394
1.00000373892
1.00000332214
1.0000029034
1.00000248244
1.00000205913
1.00000163288
1.00000120462
1.00000076927
1.00000033886
0.999999833868
1.00002032529
1.00001980539
1.00001937704
1.0000189404
1.000018512
1.00001808535
1.00001766177
1.00001724056
1.00001682161
1.00001640465
1.00001598948
1.00001557588
1.00001516365
1.00001475263
1.00001434265
1.00001393356
1.00001352522
1.00001311753
1.00001271036
1.00001230363
1.00001189725
1.00001149113
1.00001108522
1.00001067943
1.00001027371
1.000009868
1.00000946223
1.00000905635
1.00000865028
1.00000824398
1.00000783735
1.00000743034
1.00000702284
1.00000661476
1.00000620601
1.00000579645
1.00000538597
1.00000497441
1.00000456163
1.00000414745
1.0000037317
1.00000331416
1.00000289465
1.00000247292
1.00000204887
1.00000162191
1.00000119302
1.0000007571
1.00000032636
0.99999982049
1.00002033619
1.00001981522
1.00001938659
1.00001894943
1.0000185205
1.00001809327
1.00001766908
1.00001724725
1.00001682768
1.00001641012
1.00001599436
1.00001558021
1.00001516747
1.00001475597
1.00001434555
1.00001393605
1.00001352734
1.00001311931
1.00001271183
1.00001230482
1.00001189818
1.00001149182
1.00001108568
1.00001067968
1.00001027375
1.00000986783
1.00000946185
1.00000905575
1.00000864947
1.00000824292
1.00000783604
1.00000742874
1.00000702094
1.00000661253
1.00000620341
1.00000579346
1.00000538255
1.00000497054
1.00000455727
1.00000414257
1.00000372627
1.00000330817
1.00000288809
1.00000246581
1.00000204121
1.00000161374
1.00000118441
1.00000074807
1.0000003171
0.999999810593
1.00002034342
1.00001982173
1.00001939293
1.00001895542
1.00001852615
1.00001809853
1.00001767395
1.00001725171
1.00001683173
1.00001641377
1.00001599764
1.00001558312
1.00001517004
1.00001475822
1.0000143475
1.00001393773
1.00001352877
1.00001312051
1.00001271283
1.00001230563
1.00001189881
1.00001149229
1.00001108599
1.00001067985
1.00001027378
1.00000986771
1.0000094616
1.00000905535
1.00000864891
1.00000824221
1.00000783515
1.00000742767
1.00000701966
1.00000661103
1.00000620167
1.00000579146
1.00000538026
1.00000496794
1.00000455434
1.0000041393
1.00000372264
1.00000330418
1.00000288373
1.00000246108
1.00000203613
1.00000160834
1.00000117871
1.00000074211
1.00000031098
0.999999804058
1.00002034702
1.00001982498
1.00001939609
1.00001895841
1.00001852897
1.00001810116
1.00001767638
1.00001725394
1.00001683376
1.0000164156
1.00001599928
1.00001558458
1.00001517133
1.00001475934
1.00001434848
1.00001393857
1.00001352949
1.00001312112
1.00001271333
1.00001230603
1.00001189912
1.00001149253
1.00001108615
1.00001067993
1.00001027379
1.00000986766
1.00000946147
1.00000905515
1.00000864863
1.00000824185
1.0000078347
1.00000742712
1.00000701901
1.00000661027
1.00000620079
1.00000579045
1.00000537911
1.00000496664
1.00000455287
1.00000413766
1.00000372083
1.00000330218
1.00000288155
1.00000245872
1.0000020336
1.00000160564
1.00000117588
1.00000073914
1.00000030794
0.999999800809
1.00002034702
1.00001982498
1.00001939609
1.00001895841
1.00001852897
1.00001810116
1.00001767638
1.00001725394
1.00001683376
1.0000164156
1.00001599928
1.00001558458
1.00001517133
1.00001475934
1.00001434848
1.00001393857
1.00001352949
1.00001312112
1.00001271333
1.00001230603
1.00001189912
1.00001149253
1.00001108615
1.00001067993
1.00001027379
1.00000986766
1.00000946147
1.00000905515
1.00000864863
1.00000824185
1.0000078347
1.00000742712
1.00000701901
1.00000661027
1.00000620079
1.00000579045
1.00000537911
1.00000496664
1.00000455287
1.00000413766
1.00000372083
1.00000330218
1.00000288155
1.00000245872
1.0000020336
1.00000160564
1.00000117588
1.00000073914
1.00000030794
0.999999800809
1.00002034342
1.00001982173
1.00001939293
1.00001895542
1.00001852615
1.00001809853
1.00001767395
1.00001725171
1.00001683173
1.00001641377
1.00001599764
1.00001558312
1.00001517004
1.00001475822
1.0000143475
1.00001393773
1.00001352877
1.00001312051
1.00001271283
1.00001230563
1.00001189881
1.00001149229
1.00001108599
1.00001067985
1.00001027378
1.00000986771
1.0000094616
1.00000905535
1.00000864891
1.00000824221
1.00000783515
1.00000742767
1.00000701966
1.00000661103
1.00000620167
1.00000579146
1.00000538026
1.00000496794
1.00000455434
1.0000041393
1.00000372264
1.00000330418
1.00000288373
1.00000246108
1.00000203613
1.00000160834
1.00000117871
1.00000074211
1.00000031098
0.999999804058
1.00002033619
1.00001981522
1.00001938659
1.00001894943
1.0000185205
1.00001809327
1.00001766908
1.00001724725
1.00001682768
1.00001641012
1.00001599436
1.00001558021
1.00001516747
1.00001475597
1.00001434555
1.00001393605
1.00001352734
1.00001311931
1.00001271183
1.00001230482
1.00001189818
1.00001149182
1.00001108568
1.00001067968
1.00001027375
1.00000986783
1.00000946185
1.00000905575
1.00000864947
1.00000824292
1.00000783604
1.00000742874
1.00000702094
1.00000661253
1.00000620341
1.00000579346
1.00000538255
1.00000497054
1.00000455727
1.00000414257
1.00000372627
1.00000330817
1.00000288809
1.00000246581
1.00000204121
1.00000161374
1.00000118441
1.00000074807
1.0000003171
0.999999810593
1.00002032529
1.00001980539
1.00001937704
1.0000189404
1.000018512
1.00001808535
1.00001766177
1.00001724056
1.00001682161
1.00001640465
1.00001598948
1.00001557588
1.00001516365
1.00001475263
1.00001434265
1.00001393356
1.00001352522
1.00001311753
1.00001271036
1.00001230363
1.00001189725
1.00001149113
1.00001108522
1.00001067943
1.00001027371
1.000009868
1.00000946223
1.00000905635
1.00000865028
1.00000824398
1.00000783735
1.00000743034
1.00000702284
1.00000661476
1.00000620601
1.00000579645
1.00000538597
1.00000497441
1.00000456163
1.00000414745
1.0000037317
1.00000331416
1.00000289465
1.00000247292
1.00000204887
1.00000162191
1.00000119302
1.0000007571
1.00000032636
0.99999982049
1.0000203106
1.00001979218
1.0000193642
1.00001892829
1.00001850061
1.00001807477
1.00001765202
1.00001723165
1.00001681354
1.00001639739
1.000015983
1.00001557014
1.00001515861
1.00001474823
1.00001433884
1.00001393029
1.00001352244
1.00001311519
1.00001270844
1.00001230207
1.00001189603
1.00001149023
1.00001108461
1.0000106791
1.00001027366
1.00000986821
1.00000946272
1.00000905711
1.00000865135
1.00000824535
1.00000783907
1.00000743242
1.00000702532
1.00000661769
1.00000620941
1.00000580038
1.00000539047
1.00000497953
1.00000456742
1.00000415394
1.00000373892
1.00000332214
1.0000029034
1.00000248244
1.00000205913
1.00000163288
1.00000120462
1.00000076927
1.00000033886
0.999999833868
1.00002029203
1.00001977548
1.000019348
1.00001891302
1.00001848629
1.00001806148
1.00001763981
1.00001722052
1.00001680348
1.00001638838
1.00001597497
1.00001556305
1.00001515239
1.00001474281
1.00001433416
1.00001392627
1.00001351904
1.00001311234
1.00001270608
1.00001230018
1.00001189455
1.00001148914
1.00001108387
1.00001067871
1.00001027359
1.00000986847
1.00000946331
1.00000905804
1.00000865263
1.00000824702
1.00000784115
1.00000743495
1.00000702835
1.00000662126
1.00000621358
1.00000580521
1.00000539601
1.00000498586
1.00000457457
1.00000416199
1.00000374791
1.00000333211
1.00000291436
1.0000024944
1.00000207206
1.00000164673
1.00000121929
1.0000007847
1.00000035473
0.999999850891
1.00002026938
1.00001975517
1.00001932832
1.00001889452
1.00001846897
1.00001804547
1.00001762513
1.00001720719
1.00001679147
1.00001637764
1.00001596545
1.00001555465
1.00001514505
1.00001473644
1.00001432866
1.00001392158
1.00001351507
1.00001310902
1.00001270335
1.00001229798
1.00001189283
1.00001148786
1.00001108302
1.00001067824
1.00001027351
1.00000986877
1.00000946398
1.00000905911
1.00000865412
1.00000824895
1.00000784356
1.00000743789
1.00000703187
1.00000662542
1.00000621846
1.00000581087
1.00000540254
1.00000499332
1.00000458306
1.00000417157
1.00000375864
1.00000334405
1.00000292755
1.00000250884
1.00000208772
1.00000166356
1.00000123718
1.00000080356
1.00000037417
0.999999871776
1.00002024246
1.00001973107
1.00001930502
1.00001887267
1.00001844859
1.00001802669
1.00001760798
1.00001719167
1.00001677754
1.00001636524
1.00001595449
1.00001554504
1.00001513667
1.00001472918
1.00001432243
1.00001391628
1.00001351059
1.00001310529
1.00001270029
1.00001229551
1.00001189092
1.00001148644
1.00001108206
1.00001067772
1.00001027341
1.00000986909
1.00000946472
1.00000906029
1.00000865576
1.00000825109
1.00000784625
1.00000744118
1.00000703582
1.00000663011
1.00000622397
1.00000581729
1.00000540996
1.00000500185
1.00000459279
1.0000041826
1.00000377107
1.00000335794
1.00000294295
1.00000252578
1.00000210619
1.00000168349
1.00000125843
1.00000082605
1.0000003974
0.999999896803
1.00002021098
1.00001970297
1.00001927792
1.00001884735
1.00001842506
1.0000180051
1.00001758835
1.000017174
1.00001676176
1.00001635125
1.00001594219
1.00001553429
1.00001512734
1.00001472115
1.00001431556
1.00001391044
1.00001350569
1.00001310122
1.00001269695
1.00001229284
1.00001188884
1.00001148491
1.00001108102
1.00001067716
1.0000102733
1.00000986942
1.00000946552
1.00000906156
1.00000865753
1.0000082534
1.00000784915
1.00000744474
1.00000704012
1.00000663523
1.00000623001
1.00000582437
1.00000541819
1.00000501135
1.00000460369
1.00000419503
1.00000378513
1.00000337374
1.00000296057
1.00000254526
1.00000212753
1.00000170664
1.00000128323
1.0000008524
1.0000004247
0.999999926328
1.00002017458
1.0000196706
1.0000192468
1.00001881841
1.00001839829
1.00001798067
1.00001756627
1.00001715423
1.0000167442
1.00001633579
1.00001592865
1.00001552253
1.00001511719
1.00001471245
1.00001430816
1.00001390419
1.00001350046
1.00001309688
1.00001269342
1.00001229001
1.00001188664
1.00001148329
1.00001107993
1.00001067656
1.00001027318
1.00000986977
1.00000946634
1.00000906287
1.00000865937
1.00000825582
1.0000078522
1.0000074485
1.00000704468
1.00000664069
1.00000623649
1.00000583199
1.0000054271
1.0000050217
1.00000461564
1.00000420872
1.00000380073
1.00000339139
1.00000298038
1.00000256731
1.00000215183
1.00000173317
1.00000131181
1.00000088292
1.00000045644
0.999999960801
1.00002013281
1.00001963363
1.00001921139
1.00001878565
1.00001836818
1.00001795337
1.00001754176
1.00001713243
1.00001672498
1.00001631896
1.00001591404
1.00001550991
1.00001510637
1.00001470323
1.00001430036
1.00001389764
1.000013495
1.00001309239
1.00001268977
1.00001228711
1.0000118844
1.00001148163
1.00001107881
1.00001067595
1.00001027304
1.00000987011
1.00000946716
1.0000090642
1.00000866123
1.00000825827
1.00000785532
1.00000745236
1.00000704938
1.00000664636
1.00000624326
1.00000584001
1.00000543654
1.00000503274
1.00000462847
1.00000422355
1.00000381775
1.00000341078
1.00000300232
1.00000259192
1.00000217917
1.00000176323
1.00000134442
1.00000091796
1.00000049306
1.00000000079
1.00002008508
1.00001959164
1.00001917137
1.00001874888
1.00001833462
1.00001792319
1.00001751489
1.00001710873
1.00001670425
1.00001630096
1.00001589852
1.00001549662
1.00001509506
1.00001469367
1.00001429232
1.00001389093
1.00001348945
1.00001308785
1.0000126861
1.0000122842
1.00001188216
1.00001147999
1.0000110777
1.00001067534
1.0000102729
1.00000987044
1.00000946796
1.00000906549
1.00000866307
1.0000082607
1.00000785841
1.00000745622
1.00000705411
1.0000066521
1.00000625016
1.00000584825
1.00000544632
1.00000504428
1.000004642
1.00000423931
1.00000383601
1.00000343179
1.0000030263
1.00000261906
1.0000022096
1.00000179698
1.00000138134
1.00000095795
1.00000053509
1.00000004701
1.00002003063
1.00001954411
1.00001912635
1.00001870788
1.00001829753
1.00001789015
1.00001748575
1.00001708328
1.0000166822
1.00001628201
1.00001588233
1.00001548289
1.00001508348
1.00001468396
1.00001428423
1.00001388424
1.00001348396
1.00001308339
1.00001268252
1.00001228138
1.00001188
1.0000114784
1.00001107664
1.00001067475
1.00001027276
1.00000987073
1.0000094687
1.00000906671
1.0000086648
1.00000826301
1.00000786139
1.00000745995
1.00000705873
1.00000665776
1.00000625702
1.00000585652
1.00000545623
1.00000505608
1.00000465598
1.00000425579
1.00000385529
1.0000034542
1.00000305216
1.00000264866
1.00000224314
1.00000183459
1.0000014229
1.0000010034
1.00000058321
1.0000001004
1.00001996847
1.00001949039
1.00001907587
1.00001866239
1.00001825684
1.00001785432
1.00001745452
1.00001705632
1.00001665912
1.00001626239
1.00001586576
1.00001546899
1.00001507188
1.00001467434
1.00001427631
1.00001387776
1.0000134787
1.00001307915
1.00001267915
1.00001227875
1.000011878
1.00001147695
1.00001107566
1.0000106742
1.00001027263
1.000009871
1.00000946937
1.00000906781
1.00000866638
1.00000826513
1.00000786413
1.00000746343
1.00000706309
1.00000666314
1.00000626363
1.00000586459
1.00000546601
1.00000506788
1.00000467013
1.00000427265
1.00000387528
1.00000347774
1.00000307968
1.00000268056
1.00000227976
1.00000187619
1.00000146943
1.00000105488
1.00000063822
1.00000016214
1.00001989726
1.00001942968
1.00001901939
1.00001861217
1.00001821253
1.00001781585
1.00001742146
1.00001702818
1.00001663536
1.00001624247
1.00001584918
1.00001545526
1.00001506059
1.00001466511
1.00001426881
1.00001387171
1.00001347385
1.0000130753
1.00001267613
1.00001227642
1.00001187624
1.00001147568
1.00001107482
1.00001067373
1.0000102725
1.00000987121
1.00000946993
1.00000906874
1.00000866772
1.00000826696
1.00000786653
1.00000746652
1.000007067
1.00000666806
1.00000626976
1.00000587218
1.00000547535
1.00000507932
1.00000468406
1.00000428953
1.00000389559
1.00000350203
1.0000031085
1.0000027145
1.00000231933
1.00000192183
1.00000152125
1.00000111308
1.00000070113
1.0000002338
1.00001981522
1.00001936097
1.00001895631
1.00001855703
1.00001816468
1.00001777502
1.00001738696
1.00001699932
1.0000166114
1.00001622273
1.00001583302
1.00001544212
1.00001504998
1.00001465659
1.00001426202
1.00001386633
1.00001346963
1.00001307201
1.0000126736
1.00001227451
1.00001187483
1.00001147468
1.00001107416
1.00001067337
1.0000102724
1.00000987137
1.00000947035
1.00000906945
1.00000866877
1.00000826841
1.00000786847
1.00000746906
1.00000707029
1.00000667228
1.00000627514
1.00000587898
1.00000548391
1.00000509001
1.00000469735
1.00000430593
1.00000391571
1.00000352654
1.00000313815
1.00000275005
1.00000236156
1.00000197147
1.00000157866
1.00000117877
1.0000007732
1.0000003175
1.00001971991
1.00001928301
1.00001888595
1.00001849685
1.00001811352
1.00001773228
1.0000173516
1.00001697035
1.00001658786
1.00001620375
1.00001581783
1.00001543006
1.00001504047
1.00001464916
1.00001425625
1.00001386189
1.00001346625
1.00001306947
1.00001267172
1.00001227313
1.00001187385
1.00001147401
1.00001107373
1.00001067313
1.00001027234
1.00000987146
1.00000947061
1.0000090699
1.00000866945
1.00000826938
1.00000786982
1.0000074709
1.00000707277
1.00000667558
1.00000627949
1.00000588467
1.00000549128
1.00000509949
1.00000470945
1.00000432126
1.00000393499
1.0000035506
1.00000316792
1.0000027866
1.00000240597
1.00000202488