/*--------------------------------*- C++ -*----------------------------------*\
| =========                 |                                                 |
| \\      /  F ield         | OpenFOAM: The Open Source CFD Toolbox           |
|  \\    /   O peration     | Version:  2.4.0                                 |
|   \\  /    A nd           | Web:      www.OpenFOAM.org                      |
|    \\/     M anipulation  |                                                 |
\*---------------------------------------------------------------------------*/
FoamFile
{
    version     2.0;
    format      ascii;
    class       volVectorField;
    location    "700";
    object      U;
}
// * * * * * * * * * * * * * * * * * * * * * * * * * * * * * * * * * * * * * //

dimensions      [0 1 -1 0 0 0 0];

internalField   nonuniform List<vector> 
2500
(
(-0.112385521505 -0.0138005228081 0)
(-0.0855495832017 -0.00940360104428 0)
(-0.0703107606269 -0.00481233419708 0)
(-0.0615798964783 -0.00270613750026 0)
(-0.0560414557806 -0.00161128584971 0)
(-0.0523519725315 -0.00105442909342 0)
(-0.0497104933323 -0.000731519659154 0)
(-0.0477494214659 -0.000533707833041 0)
(-0.0462449675549 -0.000401107509473 0)
(-0.0450696657343 -0.000307732246864 0)
(-0.0441396341134 -0.000238556025151 0)
(-0.043399269195 -0.00018562804726 0)
(-0.0428090997091 -0.000143949224727 0)
(-0.0423405173177 -0.000110424949923 0)
(-0.0419720677676 -8.29534443268e-05 0)
(-0.041687382801 -6.00893125626e-05 0)
(-0.0414737508782 -4.07874930349e-05 0)
(-0.0413211978174 -2.42773497941e-05 0)
(-0.0412218378067 -9.97289666904e-06 0)
(-0.0411694211232 2.58040183888e-06 0)
(-0.0411590056006 1.37431815005e-05 0)
(-0.0411867173731 2.38071179894e-05 0)
(-0.0412495737546 3.30129184901e-05 0)
(-0.0413453523391 4.15632073151e-05 0)
(-0.0414724947859 4.96321849369e-05 0)
(-0.0416300378552 5.73729769901e-05 0)
(-0.0418175665413 6.49234158895e-05 0)
(-0.0420351860027 7.24106961788e-05 0)
(-0.0422835102746 7.99552261597e-05 0)
(-0.0425636668067 8.76738517583e-05 0)
(-0.0428773167836 9.56825346748e-05 0)
(-0.0432266919116 0.000104098334739 0)
(-0.0436146492202 0.000113040369058 0)
(-0.0440447455985 0.000122628558062 0)
(-0.0445213348148 0.000132978539939 0)
(-0.045049687561 0.000144187738425 0)
(-0.0456361382726 0.000156307932407 0)
(-0.0462882532146 0.000169288319852 0)
(-0.047015040769 0.000182889080898 0)
(-0.0478272154882 0.000196538253078 0)
(-0.0487377199602 0.000209246480735 0)
(-0.0497628748863 0.000219675931162 0)
(-0.0509254969379 0.000227319214258 0)
(-0.0522632425253 0.000235929384243 0)
(-0.0538469255937 0.00026413006744 0)
(-0.0558319030975 0.00036830312103 0)
(-0.0585210177802 0.000691407742855 0)
(-0.0626372235904 0.00153570304551 0)
(-0.0690703498209 0.00357142970821 0)
(-0.0807034055743 0.00816776084047 0)
(-0.256880129552 -0.0429325430342 0)
(-0.226631085166 -0.0309197582985 0)
(-0.205649790384 -0.0182758892504 0)
(-0.190670319471 -0.0119228868721 0)
(-0.179642420113 -0.00802730202488 0)
(-0.171438033327 -0.00572995439772 0)
(-0.165168956933 -0.00421900427899 0)
(-0.160308998557 -0.00319097891626 0)
(-0.156486020891 -0.00244759256751 0)
(-0.153454254936 -0.00189196542744 0)
(-0.151038774114 -0.00146191674979 0)
(-0.149114903932 -0.0011209519905 0)
(-0.147590344283 -0.000844581143224 0)
(-0.146395738866 -0.000616567037234 0)
(-0.145477836328 -0.000425389863206 0)
(-0.144795236934 -0.000262763303382 0)
(-0.144315386825 -0.000122491562438 0)
(-0.144012532528 1.51538824529e-07 0)
(-0.143866249245 0.00010886890654 0)
(-0.143860384294 0.000206622408239 0)
(-0.143982279149 0.000295835524621 0)
(-0.144222195041 0.000378534376978 0)
(-0.144572886213 0.000456452442261 0)
(-0.145029285685 0.000531109139782 0)
(-0.14558827863 0.000603871619613 0)
(-0.146248547083 0.000676004995075 0)
(-0.14701047509 0.000748715250343 0)
(-0.14787610789 0.000823187784074 0)
(-0.148849162105 0.000900624099707 0)
(-0.149935087086 0.000982278797213 0)
(-0.151141180749 0.00106949905937 0)
(-0.152476766626 0.00116376881355 0)
(-0.153953443764 0.00126676041 0)
(-0.155585426357 0.00138039641837 0)
(-0.157390001415 0.00150692672248 0)
(-0.159388142556 0.00164902385131 0)
(-0.161605353397 0.00180991256404 0)
(-0.164072830564 0.00199354036729 0)
(-0.166829161536 0.00220487212445 0)
(-0.169922767173 0.00245036229085 0)
(-0.173415724273 0.00273908648018 0)
(-0.177389306132 0.00308488053396 0)
(-0.181952590721 0.00351196905828 0)
(-0.187253851123 0.00406532194531 0)
(-0.193491929716 0.00483626328477 0)
(-0.200929150644 0.00600106296833 0)
(-0.209833226269 0.00790957000639 0)
(-0.220500048102 0.0111451457929 0)
(-0.232553543985 0.0167273659961 0)
(-0.24611373355 0.0250265233796 0)
(-0.324278219385 -0.0622387500255 0)
(-0.307514736745 -0.0476617888222 0)
(-0.29304811484 -0.0313359594266 0)
(-0.280645537401 -0.0222944585945 0)
(-0.270499761896 -0.0159768362746 0)
(-0.262361537057 -0.0118883792135 0)
(-0.255837130285 -0.00898673032712 0)
(-0.250609743584 -0.00690012145625 0)
(-0.2464116705 -0.0053276117892 0)
(-0.243043042852 -0.00411465162327 0)
(-0.240349114174 -0.00315254493334 0)
(-0.238212065961 -0.00237431802341 0)
(-0.236540303514 -0.00173282702928 0)
(-0.235262267665 -0.00119569539224 0)
(-0.234321371533 -0.000739247972073 0)
(-0.233672610627 -0.000346011393127 0)
(-0.233280010457 -2.62436480485e-06 0)
(-0.233114796662 0.000301315604063 0)
(-0.233154022472 0.000574113027966 0)
(-0.23337954717 0.000822530581008 0)
(-0.23377726208 0.00105219838942 0)
(-0.234336505202 0.00126790520375 0)
(-0.235049618287 0.00147381950962 0)
(-0.235911616182 0.00167365945276 0)
(-0.236919946386 0.00187082982276 0)
(-0.238074323826 0.00206853650601 0)
(-0.239376630569 0.0022698871102 0)
(-0.240830873971 0.00247798410079 0)
(-0.242443199795 0.00269601608416 0)
(-0.244221959402 0.00292735240058 0)
(-0.246177832762 0.00317564658823 0)
(-0.248324011187 0.00344495485795 0)
(-0.250676447457 0.00373987785874 0)
(-0.253254182349 0.00406573543666 0)
(-0.256079765987 0.00442879138778 0)
(-0.259179787135 0.00483654654676 0)
(-0.262585557153 0.00529814725066 0)
(-0.266333944817 0.00582494917928 0)
(-0.270468496214 0.00643140340036 0)
(-0.275040647702 0.00713634909007 0)
(-0.280111425009 0.00796537302376 0)
(-0.285752182062 0.00895422269929 0)
(-0.292045413994 0.0101558609341 0)
(-0.299077649696 0.0116487656877 0)
(-0.30692659447 0.0135564936205 0)
(-0.315609408648 0.0160539956166 0)
(-0.324994890513 0.0194093847834 0)
(-0.334604409348 0.0238745053114 0)
(-0.34335376826 0.0298057806473 0)
(-0.349599374634 0.0365469678773 0)
(-0.362298278873 -0.0692262389815 0)
(-0.357568645746 -0.0553748001587 0)
(-0.350892454239 -0.0390715515089 0)
(-0.343527524894 -0.0293102985596 0)
(-0.336629800078 -0.0218222384091 0)
(-0.330561319655 -0.0166712018235 0)
(-0.325407121877 -0.0128050161741 0)
(-0.321115874106 -0.00991175085923 0)
(-0.317589073276 -0.00765809308351 0)
(-0.314725390283 -0.0058747693481 0)
(-0.312431488584 -0.00443008461952 0)
(-0.310627542846 -0.00324095726413 0)
(-0.309246440149 -0.0022459374648 0)
(-0.308232622599 -0.00140170244015 0)
(-0.307540265223 -0.000675594986036 0)
(-0.307131738622 -4.29658315045e-05 0)
(-0.306976239193 0.0005154474788 0)
(-0.307048686359 0.0010149194203 0)
(-0.307328821124 0.00146785202754 0)
(-0.307800485955 0.00188449780182 0)
(-0.308451046806 0.00227350996145 0)
(-0.309270932218 0.00264233928791 0)
(-0.310253266164 0.00299754204134 0)
(-0.311393577481 0.00334501998523 0)
(-0.312689571757 0.0036902165572 0)
(-0.314140954636 0.0040382820912 0)
(-0.315749297471 0.00439421944951 0)
(-0.317517937603 0.00476301808487 0)
(-0.319451906422 0.00514978360098 0)
(-0.321557878369 0.00555986896283 0)
(-0.323844133913 0.00599901364985 0)
(-0.326320527448 0.0064734971469 0)
(-0.328998450684 0.00699031502818 0)
(-0.331890773919 0.00755738611945 0)
(-0.335011751977 0.00818380626076 0)
(-0.338376848694 0.00888016093211 0)
(-0.342002472661 0.00965893770732 0)
(-0.345905464535 0.0105350504308 0)
(-0.350102412362 0.0115266143627 0)
(-0.354608104146 0.0126559172884 0)
(-0.359433751319 0.0139511206306 0)
(-0.364581658409 0.0154480101023 0)
(-0.370040416154 0.0171939846945 0)
(-0.37576425158 0.0192491162006 0)
(-0.381662431502 0.0216945738594 0)
(-0.387517103025 0.0246147552779 0)
(-0.392999402473 0.0281148298701 0)
(-0.397338496831 0.0321677685991 0)
(-0.39985622361 0.0367438655609 0)
(-0.398480535058 0.0409944326263 0)
(-0.388628203031 -0.0686829047057 0)
(-0.391917571354 -0.0569596903776 0)
(-0.391273037137 -0.0423678023076 0)
(-0.388515100858 -0.0329895753313 0)
(-0.384963748737 -0.0252678939937 0)
(-0.381307261825 -0.0196752197811 0)
(-0.37791719853 -0.0152758656307 0)
(-0.374935046808 -0.0118684724253 0)
(-0.372401550471 -0.00913651990998 0)
(-0.370305959647 -0.00692583619942 0)
(-0.368617043526 -0.00510139412024 0)
(-0.367296791931 -0.00357669514373 0)
(-0.366307198016 -0.00228423578218 0)
(-0.365613114805 -0.00117528524144 0)
(-0.36518333652 -0.000211959567901 0)
(-0.364990798741 0.000634934810617 0)
(-0.365012395969 0.00138868185362 0)
(-0.365228639627 0.0020680417226 0)
(-0.365623272686 0.00268846160552 0)
(-0.366182890592 0.00326285390466 0)
(-0.366896591275 0.00380221232799 0)
(-0.367755660658 0.00431605944215 0)
(-0.368753293562 0.00481280026449 0)
(-0.369884346006 0.00529999907191 0)
(-0.371145113402 0.00578460589889 0)
(-0.372533128159 0.00627314524543 0)
(-0.374046969659 0.00677187884186 0)
(-0.375686078852 0.00728695012976 0)
(-0.377450568991 0.0078245169503 0)
(-0.379341022486 0.00839087736908 0)
(-0.381358262802 0.00899259309104 0)
(-0.383503086374 0.0096366140465 0)
(-0.38577593981 0.0103304085352 0)
(-0.38817651517 0.0110821016139 0)
(-0.390703248309 0.0119006297038 0)
(-0.39335265469 0.0127959112813 0)
(-0.396118519019 0.0137790591648 0)
(-0.398990712917 0.0148626151481 0)
(-0.401953879404 0.0160609092931 0)
(-0.404984981394 0.0173903946914 0)
(-0.408051273763 0.0188703937399 0)
(-0.411103723744 0.020523285085 0)
(-0.414075179294 0.022376112896 0)
(-0.416857435328 0.0244578171421 0)
(-0.419312708515 0.0268022596205 0)
(-0.421178616095 0.0294243945061 0)
(-0.422205894493 0.0323291604921 0)
(-0.421699694365 0.0353776166509 0)
(-0.419618006205 0.0383892081419 0)
(-0.413911326356 0.0406849538481 0)
(-0.407644387758 -0.0642088028382 0)
(-0.415755587825 -0.0549458548114 0)
(-0.419255541091 -0.0425860585664 0)
(-0.420007822987 -0.0340899144541 0)
(-0.419201129148 -0.0266849657951 0)
(-0.417664814607 -0.0210675755799 0)
(-0.415894992021 -0.0164729459492 0)
(-0.414149680088 -0.0128062446126 0)
(-0.412562145607 -0.00979295765126 0)
(-0.411189483569 -0.0073073382699 0)
(-0.410050420125 -0.0052234940913 0)
(-0.409142832617 -0.00345986584025 0)
(-0.408454910363 -0.00194914592035 0)
(-0.407970609494 -0.000641653197942 0)
(-0.407672804984 0.000502424818199 0)
(-0.407544810111 0.00151435839958 0)
(-0.407571148096 0.0024195540195 0)
(-0.407737847807 0.00323875590863 0)
(-0.408032508632 0.00398923024294 0)
(-0.408444230012 0.00468551254543 0)
(-0.408963476461 0.00534002700806 0)
(-0.409581909045 0.00596353767466 0)
(-0.410292202963 0.00656551104854 0)
(-0.411087859268 0.00715439975398 0)
(-0.411963014107 0.00773787377577 0)
(-0.412912245069 0.00832300969755 0)
(-0.41393037225 0.00891644915142 0)
(-0.415012250025 0.00952453305503 0)
(-0.416152544603 0.0101534172168 0)
(-0.417345491009 0.0108091730911 0)
(-0.418584623257 0.0114978768547 0)
(-0.419862468123 0.0122256888459 0)
(-0.421170197176 0.0129989259991 0)
(-0.422497218162 0.0138241278743 0)
(-0.423830712272 0.0147081218201 0)
(-0.425155057885 0.0156580840137 0)
(-0.426451216852 0.0166816170759 0)
(-0.427695822381 0.0177868183406 0)
(-0.428860422539 0.0189824237263 0)
(-0.429909583996 0.0202778619169 0)
(-0.430800381763 0.0216835768255 0)
(-0.431476612462 0.0232106589885 0)
(-0.431871831045 0.0248714045811 0)
(-0.43188616696 0.0266756622103 0)
(-0.431416738453 0.0286310860808 0)
(-0.430251333147 0.0307217719746 0)
(-0.428283283934 0.0329088250324 0)
(-0.424970948619 0.0350388514987 0)
(-0.42068139379 0.0368928869415 0)
(-0.413588566955 0.0380573001711 0)
(-0.420613768284 -0.058070159302 0)
(-0.431165376429 -0.0511055983195 0)
(-0.437212811456 -0.0409672930881 0)
(-0.440372485415 -0.0335237732806 0)
(-0.441594636625 -0.0267064190997 0)
(-0.441712856597 -0.02130902705 0)
(-0.441243579595 -0.0167469600078 0)
(-0.440502637737 -0.0130093079402 0)
(-0.439675502825 -0.00987314143173 0)
(-0.438864904673 -0.00724376362934 0)
(-0.438125723616 -0.00501079422727 0)
(-0.437483849785 -0.00310187494174 0)
(-0.43694890726 -0.00145377620159 0)
(-0.436521163365 -1.87777887352e-05 0)
(-0.436195906797 0.00124250685918 0)
(-0.435965868063 0.00236157381605 0)
(-0.435822676567 0.0033644488593 0)
(-0.435757650137 0.00427262544127 0)
(-0.435762226284 0.00510414770766 0)
(-0.435828159746 0.00587427721134 0)
(-0.435947587888 0.00659607610384 0)
(-0.436113012863 0.00728083334985 0)
(-0.436317235242 0.00793841465732 0)
(-0.436553257286 0.00857753708726 0)
(-0.436814167483 0.00920599365961 0)
(-0.437093012273 0.00983083580551 0)
(-0.437382658189 0.0104585240663 0)
(-0.437675645435 0.0110950527735 0)
(-0.437964033151 0.0117460539567 0)
(-0.438239235211 0.0124168840818 0)
(-0.438491846476 0.0131126968486 0)
(-0.438711455886 0.0138385043731 0)
(-0.438886449647 0.014599229803 0)
(-0.439003790943 0.0153997527251 0)
(-0.439048797283 0.0162449531623 0)
(-0.439004851557 0.0171397519299 0)
(-0.438853159955 0.0180891646155 0)
(-0.438572239607 0.0190983441568 0)
(-0.438137736753 0.0201726723381 0)
(-0.43752098861 0.0213177459808 0)
(-0.436689552369 0.0225394904426 0)
(-0.435601685575 0.0238435950967 0)
(-0.434212193297 0.0252352767301 0)
(-0.432448461212 0.0267156295453 0)
(-0.430250956975 0.0282793218952 0)
(-0.427462060028 0.0298984920205 0)
(-0.424071773402 0.0315148135028 0)
(-0.419665851917 0.0329938403702 0)
(-0.414768410045 0.0341234517621 0)
(-0.407848392118 0.0347093660329 0)
(-0.428333654556 -0.051545969161 0)
(-0.439658120525 -0.0465015427633 0)
(-0.447016766014 -0.0383529833703 0)
(-0.451653143143 -0.0319727025975 0)
(-0.454251921151 -0.0258586440955 0)
(-0.455558472663 -0.0208224629804 0)
(-0.456050131729 -0.0164431974458 0)
(-0.456057081281 -0.0127705334964 0)
(-0.455786896296 -0.00963387982621 0)
(-0.455369369508 -0.00696750728738 0)
(-0.454883344077 -0.00467918335316 0)
(-0.454375287423 -0.00270749593298 0)
(-0.453871547793 -0.000995488725067 0)
(-0.453385857304 0.000500863721163 0)
(-0.452924227687 0.00181897929284 0)
(-0.452487912607 0.00298932293398 0)
(-0.452075301044 0.00403748224571 0)
(-0.451683063285 0.00498482232939 0)
(-0.451306862512 0.00584942722919 0)
(-0.450941774774 0.00664666288226 0)
(-0.450582532327 0.00738970311328 0)
(-0.450223651187 0.00808991699672 0)
(-0.449859486861 0.00875719618079 0)
(-0.449484243745 0.00940021483658 0)
(-0.449091955602 0.0100266455138 0)
(-0.44867644771 0.0106433361117 0)
(-0.448231287745 0.0112564573959 0)
(-0.447749729691 0.0118716260128 0)
(-0.447224653814 0.0124940079964 0)
(-0.446648503806 0.0131284063179 0)
(-0.446013223059 0.013779335818 0)
(-0.44531018717 0.0144510880712 0)
(-0.444530137236 0.0151477892197 0)
(-0.443663097171 0.0158734521963 0)
(-0.442698298104 0.0166320275671 0)
(-0.441624031091 0.0174274499446 0)
(-0.440427555153 0.0182636887943 0)
(-0.439094691045 0.0191447778944 0)
(-0.437609787081 0.020074847785 0)
(-0.435954286281 0.0210580300983 0)
(-0.434107534897 0.0220983173495 0)
(-0.432041163119 0.0231988151079 0)
(-0.429726088838 0.024360726375 0)
(-0.427108888002 0.0255800497489 0)
(-0.424156057145 0.0268433327385 0)
(-0.420747467274 0.0281176378892 0)
(-0.416920582595 0.0293371864713 0)
(-0.41235807959 0.0303940907812 0)
(-0.40759698066 0.0311044441081 0)
(-0.401387004471 0.0314083839799 0)
(-0.431776554116 -0.0453116280567 0)
(-0.442822883863 -0.0417545577115 0)
(-0.450614591058 -0.0352903854842 0)
(-0.456014230856 -0.0299074545937 0)
(-0.459459874016 -0.0245279305087 0)
(-0.461560233254 -0.019930541281 0)
(-0.462723175876 -0.0158302410211 0)
(-0.463262562474 -0.0123178592079 0)
(-0.463386978963 -0.0092711573132 0)
(-0.463238473362 -0.00664970844403 0)
(-0.46290988531 -0.00437988972097 0)
(-0.462461769673 -0.00241160232301 0)
(-0.461932968154 -0.000695254087488 0)
(-0.46134802639 0.000808551518206 0)
(-0.460722071713 0.00213433105859 0)
(-0.460064012157 0.00331073571785 0)
(-0.459378649341 0.0043622401031 0)
(-0.458668050182 0.00530952549348 0)
(-0.457932450105 0.00617026007083 0)
(-0.457170839399 0.00695955021407 0)
(-0.456381346655 0.00769039845172 0)
(-0.455561486311 0.00837404532626 0)
(-0.454708317949 0.00902026885019 0)
(-0.453818546915 0.0096376268808 0)
(-0.452888586578 0.010233662924 0)
(-0.451914595211 0.0108150778647 0)
(-0.450892496234 0.0113878757155 0)
(-0.449817987142 0.0119574872585 0)
(-0.44868654068 0.012528875917 0)
(-0.447493399112 0.013106628858 0)
(-0.446233562889 0.0136950361015 0)
(-0.444901768898 0.0142981595596 0)
(-0.443492461157 0.0149198938649 0)
(-0.441999732611 0.0155640191207 0)
(-0.440417260048 0.0162342464214 0)
(-0.438738143864 0.0169342507903 0)
(-0.436954787882 0.0176676899379 0)
(-0.435058430003 0.0184381833485 0)
(-0.433039058974 0.0192492416154 0)
(-0.430883911068 0.0201040505128 0)
(-0.428578348578 0.0210050667125 0)
(-0.426100475931 0.0219531368685 0)
(-0.423428663944 0.0229459402463 0)
(-0.420519911793 0.023975318221 0)
(-0.417353949835 0.0250222030826 0)
(-0.413837358547 0.0260519936645 0)
(-0.410028031767 0.026999599613 0)
(-0.405683127411 0.0277821920671 0)
(-0.401294352631 0.0282523206891 0)
(-0.39583877939 0.028416765506 0)
(-0.432100307728 -0.0396701107064 0)
(-0.44230632906 -0.0372035656932 0)
(-0.44997100913 -0.0321140990381 0)
(-0.455635620969 -0.0276265852178 0)
(-0.459535911138 -0.0229639697846 0)
(-0.462131583922 -0.0188403885411 0)
(-0.463749563184 -0.0150760254004 0)
(-0.464668119495 -0.0117871601058 0)
(-0.465082773804 -0.00889346793737 0)
(-0.465136432972 -0.00637576316982 0)
(-0.464927969398 -0.00417822321879 0)
(-0.464526420257 -0.00226170015931 0)
(-0.463979300618 -0.000584364257278 0)
(-0.463319396606 0.000888117297691 0)
(-0.462569250752 0.00218683227984 0)
(-0.461744339703 0.00333815200256 0)
(-0.460855225377 0.00436502046237 0)
(-0.459909030227 0.0052870906126 0)
(-0.458910445128 0.00612133538426 0)
(-0.45786242031 0.00688238637676 0)
(-0.456766642108 0.00758291741368 0)
(-0.455623863428 0.00823393651528 0)
(-0.454434134898 0.00884505274095 0)
(-0.453196967569 0.00942469707868 0)
(-0.451911448275 0.00998031451789 0)
(-0.450576321492 0.0105185270899 0)
(-0.44919004689 0.0110452742768 0)
(-0.447750838124 0.0115659333206 0)
(-0.446256686314 0.0120854227486 0)
(-0.444705368658 0.0126082911902 0)
(-0.443094442934 0.0131387932892 0)
(-0.441421222212 0.0136809535976 0)
(-0.439682732215 0.0142386187689 0)
(-0.437875629092 0.0148154966933 0)
(-0.43599610113 0.0154151801777 0)
(-0.434039667006 0.0160411482522 0)
(-0.432001013377 0.0166967354065 0)
(-0.429873494179 0.0173850469072 0)
(-0.427649042123 0.0181087863569 0)
(-0.425316760616 0.0188699414576 0)
(-0.422863938332 0.0196692018387 0)
(-0.420271315836 0.0205050633031 0)
(-0.417520796371 0.021372074305 0)
(-0.414576639723 0.0222589245658 0)
(-0.411426943782 0.0231435245104 0)
(-0.408000056886 0.0239922674415 0)
(-0.404362148309 0.0247461552842 0)
(-0.400326379805 0.0253431290257 0)
(-0.396324965496 0.0256713613745 0)
(-0.391503089311 0.0257636476511 0)
(-0.430461347029 -0.0347097587728 0)
(-0.439609689503 -0.033012144793 0)
(-0.446840607324 -0.0290150199623 0)
(-0.452457851981 -0.0253057752131 0)
(-0.45654748411 -0.0213118862015 0)
(-0.459431808354 -0.0176659314939 0)
(-0.461357706961 -0.0142643157923 0)
(-0.462558235031 -0.0112361865914 0)
(-0.463207176717 -0.00853554816318 0)
(-0.463439970123 -0.00616035232415 0)
(-0.463355253447 -0.00407096761684 0)
(-0.463025740602 -0.00223840792005 0)
(-0.462504135524 -0.000628548948473 0)
(-0.461828918053 0.000787758698902 0)
(-0.461028195983 0.00203790623949 0)
(-0.460122654207 0.00314571204859 0)
(-0.459127600174 0.00413232097746 0)
(-0.458054435753 0.00501612373198 0)
(-0.456911692524 0.00581319856649 0)
(-0.45570576961 0.00653754015335 0)
(-0.454441459612 0.00720136515943 0)
(-0.453122326885 0.00781535118697 0)
(-0.4517509814 0.00838886666655 0)
(-0.450329278313 0.00893016603044 0)
(-0.448858463836 0.00944656357418 0)
(-0.447339281296 0.00994458324464 0)
(-0.445772046726 0.0104300889157 0)
(-0.444156699749 0.0109083962968 0)
(-0.442492833467 0.0113843686844 0)
(-0.440779704149 0.0118624976872 0)
(-0.43901622197 0.0123469697896 0)
(-0.437200917882 0.0128417187458 0)
(-0.435331890312 0.0133504629218 0)
(-0.433406711625 0.0138767252728 0)
(-0.431422320635 0.0144238314561 0)
(-0.429374820913 0.0149948789291 0)
(-0.427259330948 0.0155926627245 0)
(-0.425069536464 0.0162195417847 0)
(-0.422797677062 0.0168771996615 0)
(-0.420433366818 0.017566282858 0)
(-0.417964773437 0.0182857498334 0)
(-0.415374682015 0.0190320580415 0)
(-0.412648060336 0.0197974843341 0)
(-0.409756066608 0.0205689151627 0)
(-0.406693634108 0.0213236283759 0)
(-0.403407212598 0.0220308444115 0)
(-0.399965467669 0.0226402029383 0)
(-0.396221632082 0.0231057137927 0)
(-0.392552067902 0.0233455872269 0)
(-0.388220682188 0.023398391164 0)
(-0.427832633046 -0.0304031463166 0)
(-0.435918886494 -0.0292336096592 0)
(-0.442589057822 -0.0260873639366 0)
(-0.447988921489 -0.0230372226024 0)
(-0.452104151076 -0.0196458081543 0)
(-0.455143333608 -0.0164587075969 0)
(-0.457281719167 -0.013423753299 0)
(-0.458704900684 -0.0106731742265 0)
(-0.459560495715 -0.0081874718989 0)
(-0.459970911668 -0.00597773803694 0)
(-0.460029823118 -0.00401840677586 0)
(-0.459809647411 -0.00228958014722 0)
(-0.459365193192 -0.000764455586726 0)
(-0.45873822431 0.000581032353592 0)
(-0.457960545747 0.0017704902159 0)
(-0.457056573536 0.00282503568244 0)
(-0.456045167871 0.00376383648919 0)
(-0.454941015443 0.00460384629593 0)
(-0.45375562958 0.00536008407342 0)
(-0.452498087649 0.00604575929251 0)
(-0.451175571052 0.00667249908065 0)
(-0.449793764753 0.00725053302569 0)
(-0.448357153781 0.00778888347908 0)
(-0.446869244504 0.00829553217981 0)
(-0.44533272979 0.00877757279201 0)
(-0.443749611466 0.00924134436058 0)
(-0.44212128932 0.00969254843487 0)
(-0.44044862264 0.0101363497317 0)
(-0.438731968497 0.0105774615294 0)
(-0.436971198245 0.0110202161175 0)
(-0.435165694422 0.0114686204233 0)
(-0.433314324504 0.0119263961882 0)
(-0.431415396683 0.0123970030399 0)
(-0.429466580655 0.0128836417087 0)
(-0.427464821475 0.0133892318003 0)
(-0.425406174989 0.0139163575421 0)
(-0.423285708194 0.0144671653525 0)
(-0.421097148172 0.0150432029368 0)
(-0.418832969095 0.0156451501896 0)
(-0.416483469204 0.0162724530432 0)
(-0.414038062635 0.0169226848357 0)
(-0.411482074071 0.0175908626102 0)
(-0.408803892794 0.0182679900049 0)
(-0.405981370354 0.018940398152 0)
(-0.403015198489 0.0195864206098 0)
(-0.399866076449 0.0201790064094 0)
(-0.396602058754 0.0206768111847 0)
(-0.393103710044 0.0210457932156 0)
(-0.389700717938 0.0212273368068 0)
(-0.385739692786 0.0212573451879 0)
(-0.424911438171 -0.0266687189429 0)
(-0.432041487522 -0.0258559698993 0)
(-0.438135640398 -0.0233640213256 0)
(-0.443244582024 -0.0208610753037 0)
(-0.447293536855 -0.0179981321742 0)
(-0.450404177031 -0.0152365596289 0)
(-0.45269215204 -0.0125561782925 0)
(-0.454298320083 -0.0100851515328 0)
(-0.455342970467 -0.00782310507934 0)
(-0.45593234336 -0.00579052438796 0)
(-0.456151884162 -0.00397349593429 0)
(-0.456070658561 -0.00235994156864 0)
(-0.4557430335 -0.000929748179013 0)
(-0.455211962911 0.000336338604872 0)
(-0.454511262024 0.00145819784444 0)
(-0.453667704891 0.0024542005341 0)
(-0.452702573575 0.00334143381883 0)
(-0.451632887121 0.00413528936992 0)
(-0.450472319096 0.0048495943716 0)
(-0.44923189812 0.00549664268599 0)
(-0.447920535512 0.00608734672452 0)
(-0.446545427035 0.00663136959156 0)
(-0.445112358907 0.00713727550012 0)
(-0.443625942233 0.00761266707276 0)
(-0.44208979262 0.0080643154417 0)
(-0.440506667284 0.00849827629582 0)
(-0.438878568381 0.00891999292822 0)
(-0.43720681853 0.00933438503644 0)
(-0.435492112973 0.00974592355726 0)
(-0.433734550425 0.0101586911817 0)
(-0.431933645469 0.0105764280825 0)
(-0.430088320149 0.0110025617806 0)
(-0.428196880928 0.011440219017 0)
(-0.426256966751 0.0118922167095 0)
(-0.424265496626 0.0123610260097 0)
(-0.422218553828 0.0128487037417 0)
(-0.420111343068 0.0133567751802 0)
(-0.417937938021 0.013886062856 0)
(-0.415691453997 0.0144364142605 0)
(-0.413363349522 0.0150063576251 0)
(-0.410944760631 0.0155925230648 0)
(-0.408423885263 0.0161890982141 0)
(-0.405792588382 0.0167866493698 0)
(-0.403034681539 0.0173718528162 0)
(-0.400155388903 0.0179250354746 0)
(-0.397125953642 0.0184230719369 0)
(-0.394012168761 0.0188328188123 0)
(-0.390712652463 0.0191289600452 0)
(-0.387520073536 0.0192698329207 0)
(-0.383839179726 0.0192860725095 0)
(-0.422119477754 -0.0234078807049 0)
(-0.428440332736 -0.0228342110497 0)
(-0.434001962171 -0.02084297844 0)
(-0.438804140542 -0.018788458614 0)
(-0.442740663206 -0.0163804617336 0)
(-0.445870895077 -0.0140038000682 0)
(-0.44826368687 -0.0116562349989 0)
(-0.450020703525 -0.00945711232516 0)
(-0.451236081798 -0.00741877026353 0)
(-0.451998755003 -0.00556774205437 0)
(-0.452384027762 -0.00389927768183 0)
(-0.45245551103 -0.00240774034827 0)
(-0.452265218727 -0.00107889264284 0)
(-0.451855645091 0.000102124646625 0)
(-0.451261250028 0.0011516478186 0)
(-0.45051004318 0.00208535086009 0)
(-0.449624808693 0.00291821196374 0)
(-0.448624137649 0.00366399199749 0)
(-0.447523228719 0.00433523686196 0)
(-0.446334524127 0.00494322744332 0)
(-0.445068204523 0.00549806265108 0)
(-0.443732578044 0.0060087427549 0)
(-0.442334385564 0.00648328169934 0)
(-0.440879041538 0.00692881600012 0)
(-0.439370824098 0.0073517127685 0)
(-0.437813024946 0.00775766855127 0)
(-0.436208066776 0.00815179850454 0)
(-0.434557593739 0.00853871368907 0)
(-0.432862539319 0.00892258595766 0)
(-0.431123173895 0.00930719949365 0)
(-0.429339135227 0.00969598804823 0)
(-0.427509440407 0.0100920564625 0)
(-0.425632485969 0.0104981840612 0)
(-0.423706024337 0.0109168069931 0)
(-0.421727144506 0.0113499736394 0)
(-0.419692202019 0.0117992683725 0)
(-0.417596825681 0.0122656890758 0)
(-0.415435749839 0.0127494771277 0)
(-0.413203049672 0.0132498590041 0)
(-0.410891621955 0.0137647386048 0)
(-0.408494510217 0.0142902013205 0)
(-0.406002736401 0.0148201009791 0)
(-0.403411327686 0.0153451584171 0)
(-0.400709016856 0.0158529494811 0)
(-0.397904358852 0.0163261796891 0)
(-0.394976043582 0.0167454431228 0)
(-0.391986880672 0.0170845303998 0)
(-0.388847242319 0.0173244788112 0)
(-0.385821104561 0.0174356630929 0)
(-0.382355029504 0.0174433209106 0)
(-0.419660061321 -0.020525810759 0)
(-0.425319951413 -0.0201122565755 0)
(-0.430416181795 -0.0185057755533 0)
(-0.434925871437 -0.016816699155 0)
(-0.438730567743 -0.0147961537026 0)
(-0.441847412249 -0.0127621876021 0)
(-0.444310248183 -0.0107211495084 0)
(-0.446188223041 -0.00878081606911 0)
(-0.447551960402 -0.00696104759546 0)
(-0.448473443812 -0.00529159038749 0)
(-0.449017078352 -0.00377447709157 0)
(-0.44923980203 -0.00240911102064 0)
(-0.449190002228 -0.00118620589372 0)
(-0.448908537845 -9.47731862924e-05 0)
(-0.448429506983 0.000878271841229 0)
(-0.447781319333 0.00174604279496 0)
(-0.44698758219 0.00252145311926 0)
(-0.446067911443 0.00321662217655 0)
(-0.44503859222 0.00384277282279 0)
(-0.443913129765 0.00441011525722 0)
(-0.442702695282 0.00492787025452 0)
(-0.441416489709 0.00540430934628 0)
(-0.440062038836 0.00584683233367 0)
(-0.438645433682 0.00626204979843 0)
(-0.437171526124 0.006655870246 0)
(-0.435644088036 0.00703358251794 0)
(-0.434065940239 0.00739993166452 0)
(-0.432439056005 0.00775918527056 0)
(-0.430764643103 0.00811518900491 0)
(-0.429043206669 0.00847140996338 0)
(-0.427274596318 0.00883096646927 0)
(-0.425458036728 0.00919664268179 0)
(-0.423592148721 0.00957088549339 0)
(-0.421674951171 0.00995578094094 0)
(-0.419703870723 0.0103530047332 0)
(-0.417675711514 0.0107637432634 0)
(-0.41558670284 0.0111885727774 0)
(-0.413432401155 0.0116272984875 0)
(-0.411207969174 0.0120787206804 0)
(-0.408907793726 0.0125403707991 0)
(-0.406526771369 0.0130081055842 0)
(-0.404058464994 0.0134758090118 0)
(-0.401500585431 0.0139347369533 0)
(-0.398845735748 0.014373660998 0)
(-0.396104794018 0.0147777138956 0)
(-0.393261545956 0.0151308207823 0)
(-0.390375658475 0.0154124033479 0)
(-0.387365161149 0.0156081522742 0)
(-0.384471940523 0.0156968723152 0)
(-0.381173507459 0.0156991111698 0)
(-0.417592902402 -0.0179411400729 0)
(-0.422722701819 -0.0176357105414 0)
(-0.427424502611 -0.01632867998 0)
(-0.43166923715 -0.0149379201145 0)
(-0.435337709762 -0.0132462374969 0)
(-0.438419971562 -0.0115149187568 0)
(-0.440924766958 -0.00975320550176 0)
(-0.442895397531 -0.00805607377088 0)
(-0.444382333906 -0.00644697289104 0)
(-0.445441956229 -0.00495658681134 0)
(-0.44612789419 -0.00359159287778 0)
(-0.446489929452 -0.00235509183413 0)
(-0.446572108852 -0.00124178511128 0)
(-0.446412906262 -0.000243964070781 0)
(-0.446045373606 0.000648572465385 0)
(-0.445497735155 0.00144658353322 0)
(-0.444793941676 0.00216102285553 0)
(-0.443954250851 0.00280240816953 0)
(-0.442995734958 0.0033806398758 0)
(-0.441932732779 0.00390483516873 0)
(-0.440777234197 0.00438330221771 0)
(-0.439539208383 0.00482354407789 0)
(-0.438226880516 0.00523230574681 0)
(-0.436846965108 0.00561563303664 0)
(-0.435404861965 0.00597894054573 0)
(-0.433904820397 0.00632707873706 0)
(-0.432350076285 0.00666439724662 0)
(-0.430742965761 0.00699480081565 0)
(-0.429085018897 0.00732179605696 0)
(-0.427377035611 0.00764852725306 0)
(-0.425619147205 0.00797779958258 0)
(-0.4238108634 0.00831208800136 0)
(-0.421951112017 0.00865352931081 0)
(-0.420038263557 0.00900389491289 0)
(-0.418070166479 0.00936453958641 0)
(-0.416044151381 0.00973632373389 0)
(-0.413957112685 0.0101194993502 0)
(-0.411805467046 0.0105135637036 0)
(-0.40958546206 0.0109170557322 0)
(-0.407292894931 0.0113273378169 0)
(-0.404924342204 0.0117402766678 0)