/*--------------------------------*- C++ -*----------------------------------*\
| =========                 |                                                 |
| \\      /  F ield         | OpenFOAM: The Open Source CFD Toolbox           |
|  \\    /   O peration     | Version:  2.4.0                                 |
|   \\  /    A nd           | Web:      www.OpenFOAM.org                      |
|    \\/     M anipulation  |                                                 |
\*---------------------------------------------------------------------------*/
FoamFile
{
    version     2.0;
    format      ascii;
    class       volVectorField;
    location    "700";
    object      U;
}
// * * * * * * * * * * * * * * * * * * * * * * * * * * * * * * * * * * * * * //

dimensions      [0 1 -1 0 0 0 0];

internalField   nonuniform List<vector> 
2500
(
(2.38296386462e-05 4.56335056488e-07 0)
(2.33535097256e-05 6.59796911793e-08 0)
(2.33859316385e-05 -5.47411665843e-08 0)
(2.35346305529e-05 -6.78656947508e-08 0)
(2.37044369924e-05 -5.72999663218e-08 0)
(2.38562127221e-05 -4.50842107886e-08 0)
(2.39863610935e-05 -3.56935598135e-08 0)
(2.40970030591e-05 -2.90282444125e-08 0)
(2.41916187916e-05 -2.41968464168e-08 0)
(2.42729918006e-05 -2.05105260349e-08 0)
(2.43432567481e-05 -1.75523587885e-08 0)
(2.44040413515e-05 -1.50902220264e-08 0)
(2.44566362282e-05 -1.29929115864e-08 0)
(2.45020958318e-05 -1.11809377101e-08 0)
(2.45413007524e-05 -9.60103547298e-09 0)
(2.45749949686e-05 -8.21396109072e-09 0)
(2.46038101141e-05 -6.98864879319e-09 0)
(2.46282823285e-05 -5.8992939944e-09 0)
(2.46488646853e-05 -4.92375201232e-09 0)
(2.46659366525e-05 -4.04255191091e-09 0)
(2.46798113873e-05 -3.23821916924e-09 0)
(2.46907413361e-05 -2.49476861379e-09 0)
(2.46989224436e-05 -1.79730170611e-09 0)
(2.47044971684e-05 -1.13166822179e-09 0)
(2.47075564435e-05 -4.84168836594e-10 0)
(2.47081406593e-05 1.5871934842e-10 0)
(2.47062397076e-05 8.10607335513e-10 0)
(2.47017920876e-05 1.48546260364e-09 0)
(2.46946830317e-05 2.19789282767e-09 0)
(2.46847415716e-05 2.96345953237e-09 0)
(2.46717364129e-05 3.7990373735e-09 0)
(2.46553704316e-05 4.72324008806e-09 0)
(2.46352735222e-05 5.75694565703e-09 0)
(2.46109934249e-05 6.92396220654e-09 0)
(2.45819840034e-05 8.25191464897e-09 0)
(2.45475901848e-05 9.77349766264e-09 0)
(2.45070283273e-05 1.15284131088e-08 0)
(2.44593599038e-05 1.35667209151e-08 0)
(2.44034544692e-05 1.59553110064e-08 0)
(2.43379343469e-05 1.87913250027e-08 0)
(2.42610849344e-05 2.22307617512e-08 0)
(2.41707066368e-05 2.65469019812e-08 0)
(2.40638564856e-05 3.22406570329e-08 0)
(2.39365120667e-05 4.02009489873e-08 0)
(2.37831324026e-05 5.18134090798e-08 0)
(2.35977795277e-05 6.83682843637e-08 0)
(2.33771460013e-05 8.79392063998e-08 0)
(2.31470047227e-05 9.3112858558e-08 0)
(2.29863358603e-05 5.01294307823e-09 0)
(2.32608590182e-05 -3.41082264318e-07 0)
(8.55568815531e-05 1.26874904619e-06 0)
(8.50564091248e-05 2.52309423123e-07 0)
(8.50961172561e-05 -2.19401783054e-07 0)
(8.53685323103e-05 -3.44773238239e-07 0)
(8.57431166042e-05 -3.49239165646e-07 0)
(8.61325775529e-05 -3.17956780719e-07 0)
(8.65030194174e-05 -2.80223483e-07 0)
(8.68407244125e-05 -2.44676811139e-07 0)
(8.71426397687e-05 -2.13176094863e-07 0)
(8.74097911632e-05 -1.85643325792e-07 0)
(8.76448135469e-05 -1.61583916238e-07 0)
(8.78507597042e-05 -1.40498326892e-07 0)
(8.80306433413e-05 -1.21959472512e-07 0)
(8.8187255907e-05 -1.0560973032e-07 0)
(8.83231095368e-05 -9.11455868651e-08 0)
(8.84404288251e-05 -7.83050060949e-08 0)
(8.85411623623e-05 -6.68584513709e-08 0)
(8.86270007004e-05 -5.66023839243e-08 0)
(8.86993953159e-05 -4.73542415558e-08 0)
(8.87595761981e-05 -3.89483446001e-08 0)
(8.8808567122e-05 -3.12324349829e-08 0)
(8.88471982762e-05 -2.40646774243e-08 0)
(8.88761161792e-05 -1.73110024577e-08 0)
(8.88957909211e-05 -1.08426959274e-08 0)
(8.89065207819e-05 -4.53415240796e-09 0)
(8.89084342545e-05 1.73928595074e-09 0)
(8.89014894608e-05 8.10347901534e-09 0)
(8.88854708835e-05 1.46877011145e-08 0)
(8.88599832732e-05 2.1626994361e-08 0)
(8.88244425081e-05 2.90647544095e-08 0)
(8.87780630927e-05 3.71556545675e-08 0)
(8.87198418786e-05 4.60690385304e-08 0)
(8.86485374671e-05 5.59929516291e-08 0)
(8.85626446272e-05 6.71390259269e-08 0)
(8.84603629394e-05 7.97485341644e-08 0)
(8.83395587962e-05 9.41000572766e-08 0)
(8.81977199756e-05 1.10519516764e-07 0)
(8.80319025709e-05 1.29393875584e-07 0)
(8.78386717549e-05 1.51190900316e-07 0)
(8.76140433609e-05 1.7648898086e-07 0)
(8.73534454671e-05 2.06022149442e-07 0)
(8.70517605546e-05 2.40738797912e-07 0)
(8.67035756455e-05 2.81834800508e-07 0)
(8.63040633621e-05 3.30565872344e-07 0)
(8.58510741364e-05 3.87155055453e-07 0)
(8.53512245246e-05 4.46677830492e-07 0)
(8.48298282886e-05 4.85948731218e-07 0)
(8.43644504045e-05 4.27636592025e-07 0)
(8.4085771122e-05 4.87458939373e-08 0)
(8.43004297188e-05 -8.72412046258e-07 0)
(0.000145889042683 1.90804266172e-06 0)
(0.000145460603774 4.55960765159e-07 0)
(0.000145439453362 -3.81085173485e-07 0)
(0.000145677496291 -7.0442596307e-07 0)
(0.000146076384852 -7.88535625865e-07 0)
(0.000146540585009 -7.69915758946e-07 0)
(0.000147016521227 -7.12117538684e-07 0)
(0.000147474117041 -6.42439302378e-07 0)
(0.000147899225951 -5.7227909628e-07 0)
(0.000148286198227 -5.06100243986e-07 0)
(0.000148633982455 -4.45430479328e-07 0)
(0.000148943808122 -3.90555407809e-07 0)
(0.000149217971696 -3.41243170052e-07 0)
(0.000149459183108 -2.97055308244e-07 0)
(0.000149670224749 -2.57483192585e-07 0)
(0.000149853773238 -2.22008448172e-07 0)
(0.000150012308796 -1.90129151008e-07 0)
(0.000150148071294 -1.61369923906e-07 0)
(0.000150263041372 -1.35284234967e-07 0)
(0.000150358934721 -1.11452877823e-07 0)
(0.000150437202909 -8.94806121574e-08 0)
(0.000150499036997 -6.89919644302e-08 0)
(0.000150545371719 -4.96266722267e-08 0)
(0.000150576888938 -3.1034988927e-08 0)
(0.00015059401956 -1.28729227876e-08 0)
(0.000150596943402 5.20260599008e-09 0)
(0.000150585586658 2.35387478554e-08 0)
(0.000150559616707 4.24919348397e-08 0)
(0.000150518434063 6.2433428522e-08 0)
(0.000150461161296 8.37553405224e-08 0)
(0.000150386628836 1.06877262919e-07 0)
(0.000150293357625 1.32253669928e-07 0)
(0.000150179538808 1.60382235767e-07 0)
(0.000150043010956 1.9181318014e-07 0)
(0.000149881236016 2.27159645425e-07 0)
(0.000149691276412 2.67108842453e-07 0)
(0.000149469778096 3.12433121068e-07 0)
(0.000149212969025 3.63998787537e-07 0)
(0.000148916691427 4.22767350535e-07 0)
(0.000148576504596 4.89776153448e-07 0)
(0.000148187929212 5.6606545218e-07 0)
(0.000147746979998 6.52468479447e-07 0)
(0.000147251246113 7.49048192524e-07 0)
(0.000146702092147 8.53650761476e-07 0)
(0.000146108622068 9.58231750822e-07 0)
(0.000145495509237 1.04010046122e-06 0)
(0.000144912450709 1.04095461785e-06 0)
(0.000144454723036 8.26351407403e-07 0)
(0.000144233618801 1.1104474356e-07 0)
(0.000144405670511 -1.24537515164e-06 0)
(0.000204484472724 2.40297624543e-06 0)
(0.000204133131421 6.71713244829e-07 0)
(0.000204056708873 -4.60419289556e-07 0)
(0.000204207983686 -1.00027727213e-06 0)
(0.000204536675295 -1.20857599807e-06 0)
(0.000204966890081 -1.24379290747e-06 0)
(0.000205443335242 -1.1950012195e-06 0)
(0.000205927741557 -1.10852268672e-06 0)
(0.00020639700408 -1.00808581291e-06 0)
(0.000206838098497 -9.05543856117e-07 0)
(0.000207244551673 -8.06657711824e-07 0)
(0.000207613865524 -7.14041809868e-07 0)
(0.000207945889181 -6.2868129152e-07 0)
(0.000208241793745 -5.50713103564e-07 0)
(0.000208503444682 -4.79835353303e-07 0)
(0.000208733017427 -4.15524767604e-07 0)
(0.000208932762764 -3.57153528564e-07 0)
(0.000209104863475 -3.04051974804e-07 0)
(0.000209251346972 -2.55541533516e-07 0)
(0.000209374032259 -2.10950947991e-07 0)
(0.000209474497928 -1.69622970455e-07 0)
(0.000209554062871 -1.30915540958e-07 0)
(0.000209613774457 -9.41997178859e-08 0)
(0.00020965440081 -5.88556494459e-08 0)
(0.000209676425007 -2.42673162067e-08 0)
(0.000209680039812 1.01835588944e-08 0)
(0.000209665142031 4.51242240243e-08 0)
(0.000209631325999 8.1198131576e-08 0)
(0.000209577875973 1.19072642052e-07 0)
(0.000209503757507 1.59447161065e-07 0)
(0.000209407608261 2.0306162946e-07 0)
(0.00020928772912 2.50705183503e-07 0)
(0.000209142077259 3.03224582409e-07 0)
(0.000208968263861 3.61531583999e-07 0)
(0.000208763561039 4.26607671912e-07 0)
(0.000208524925481 4.99503094443e-07 0)
(0.000208249051341 5.81324425239e-07 0)
(0.000207932473412 6.73199595071e-07 0)
(0.000207571755991 7.76198912563e-07 0)
(0.000207163827789 8.91169602084e-07 0)
(0.000206706562897 1.01839767686e-06 0)
(0.000206199777794 1.15692173246e-06 0)
(0.000205646889706 1.30313180621e-06 0)
(0.00020505765039 1.44792734944e-06 0)
(0.000204452146899 1.57091129116e-06 0)
(0.00020386676983 1.62914775866e-06 0)
(0.000203358113547 1.53522332167e-06 0)
(0.000203007782257 1.12560461755e-06 0)
(0.000202881203229 1.20273302667e-07 0)
(0.000203029603004 -1.52623355684e-06 0)
(0.000260985919249 2.77230577676e-06 0)
(0.000260704086537 8.80792890093e-07 0)
(0.000260592401938 -4.665222904e-07 0)
(0.000260659081774 -1.20435239802e-06 0)
(0.000260890942506 -1.55399730487e-06 0)
(0.000261238804364 -1.67252562836e-06 0)
(0.000261656724617 -1.66138671171e-06 0)
(0.000262106879233 -1.58094595504e-06 0)
(0.000262562366844 -1.46641736538e-06 0)
(0.000263005270348 -1.3378923507e-06 0)
(0.000263424502865 -1.20665431582e-06 0)
(0.00026381374523 -1.07886440648e-06 0)
(0.000264169886993 -9.57710746241e-07 0)
(0.000264491899841 -8.44648463511e-07 0)
(0.000264780060815 -7.40120198903e-07 0)
(0.000265035424452 -6.43977396848e-07 0)
(0.000265259467696 -5.55728796564e-07 0)
(0.000265453851591 -4.74687770934e-07 0)
(0.000265620261409 -4.00059674816e-07 0)
(0.000265760299201 -3.30993081087e-07 0)
(0.000265875411377 -2.66608961707e-07 0)
(0.000265966839621 -2.06016206964e-07 0)
(0.000266035587313 -1.48318560241e-07 0)
(0.000266082396185 -9.26160760952e-08 0)
(0.000266107729676 -3.80030368506e-08 0)
(0.000266111760659 1.64364490612e-08 0)
(0.000266094362113 7.1634358846e-08 0)
(0.000266055099942 1.28545602725e-07 0)
(0.000265993227797 1.88155321768e-07 0)
(0.000265907684304 2.51486132995e-07 0)
(0.000265797093808 3.19604659444e-07 0)
(0.000265659772616 3.93626357214e-07 0)
(0.000265493743979 4.74717046736e-07 0)
(0.000265296766815 5.64088503612e-07 0)
(0.000265066385943 6.6298365341e-07 0)
(0.000264800015649 7.72643783914e-07 0)
(0.000264495074733 8.94244686527e-07 0)
(0.000264149200773 1.02877895185e-06 0)
(0.000263760585685 1.17684419409e-06 0)
(0.000263328495806 1.33826557013e-06 0)
(0.000262854066668 1.51142330623e-06 0)
(0.000262341497794 1.69205400393e-06 0)
(0.000261799776172 1.87110637554e-06 0)
(0.000261245059577 2.03094711409e-06 0)
(0.000260703432791 2.13866231489e-06 0)
(0.000260213689581 2.13498793654e-06 0)
(0.000259825939211 1.91618579443e-06 0)
(0.000259596613452 1.31504586316e-06 0)
(0.000259551069045 8.82419095334e-08 0)
(0.000259680123384 -1.73074982655e-06 0)
(0.000315174162965 3.04126926503e-06 0)
(0.000314955440752 1.07304654097e-06 0)
(0.000314828436106 -4.1744614633e-07 0)
(0.000314829401553 -1.31675329282e-06 0)
(0.000314968767613 -1.80235893098e-06 0)
(0.000315221408729 -2.0170588945e-06 0)
(0.000315554778603 -2.06358220816e-06 0)
(0.000315936967415 -2.0097001781e-06 0)
(0.000316341910922 -1.89896065028e-06 0)
(0.000316749993482 -1.7586670224e-06 0)
(0.000317147421541 -1.60566932344e-06 0)
(0.000317525029661 -1.45016216486e-06 0)
(0.00031787712275 -1.29813827363e-06 0)
(0.00031820049544 -1.15293969374e-06 0)
(0.000318493670097 -1.01623565159e-06 0)
(0.00031875632679 -8.88638270184e-07 0)
(0.000318988887015 -7.70091508743e-07 0)
(0.000319192213432 -6.60117617971e-07 0)
(0.000319367394766 -5.57973614505e-07 0)
(0.000319515592195 -4.62750445335e-07 0)
(0.000319637929775 -3.73435310348e-07 0)
(0.000319735416243 -2.88950067121e-07 0)
(0.000319808889195 -2.08173961141e-07 0)
(0.000319858975252 -1.29956015859e-07 0)
(0.000319886061783 -5.31205881196e-08 0)
(0.000319890277212 2.35315274094e-08 0)
(0.000319871478049 1.01224747347e-07 0)
(0.000319829241697 1.81211776688e-07 0)
(0.000319762864953 2.64776919595e-07 0)
(0.000319671368934 3.53238359844e-07 0)
(0.000319553512154 4.4794782846e-07 0)
(0.000319407814627 5.50285462212e-07 0)
(0.000319232597482 6.61646581263e-07 0)
(0.000319026044696 7.83415341702e-07 0)
(0.000318786296546 9.16917320185e-07 0)
(0.000318511588562 1.06333834593e-06 0)
(0.000318200455499 1.22358910682e-06 0)
(0.000317852027558 1.39808225345e-06 0)
(0.000317466455669 1.58636752509e-06 0)
(0.000317045513286 1.78653571653e-06 0)
(0.00031659342848 1.99424531361e-06 0)
(0.000316117995656 2.20113771227e-06 0)
(0.000315631959507 2.39226706605e-06 0)
(0.000315154559491 2.54201290443e-06 0)
(0.00031471267861 2.60767912537e-06 0)
(0.000314340793566 2.52029988221e-06 0)
(0.000314076437006 2.17190294283e-06 0)
(0.000313951174261 1.40712185664e-06 0)
(0.000313962769669 2.73771534486e-08 0)
(0.000314071141312 -1.87798408523e-06 0)
(0.00036691185365 3.22676189726e-06 0)
(0.000366750922743 1.23976080936e-06 0)
(0.000366623743802 -3.35214946232e-07 0)
(0.000366579587631 -1.35536692978e-06 0)
(0.000366642071091 -1.9587791829e-06 0)
(0.000366804500739 -2.26891434053e-06 0)
(0.000367047502877 -2.38264900521e-06 0)
(0.00036734738151 -2.36940209913e-06 0)
(0.000367681892199 -2.27735076708e-06 0)
(0.000368032384737 -2.13901622819e-06 0)
(0.00036838437483 -1.97595578787e-06 0)
(0.000368727217046 -1.80219560754e-06 0)
(0.000369053473012 -1.62666487781e-06 0)
(0.000369358222378 -1.45486506017e-06 0)
(0.000369638440661 -1.29000029143e-06 0)
(0.000369892481225 -1.13373636115e-06 0)
(0.000370119663805 -9.8670894179e-07 0)
(0.000370319956388 -8.48863632452e-07 0)
(0.000370493733428 -7.19683492171e-07 0)
(0.000370641594062 -5.9834116889e-07 0)
(0.00037076422646 -4.8380030173e-07 0)
(0.000370862307209 -3.74882635208e-07 0)
(0.000370936427209 -2.70311868079e-07 0)
(0.000370987037682 -1.6874170349e-07 0)
(0.000371014411671 -6.87732643696e-08 0)
(0.000371018617824 3.10344567065e-08 0)
(0.000370999504454 1.32158342621e-07 0)
(0.00037095669288 2.36106832285e-07 0)
(0.000370889580058 3.444154342e-07 0)
(0.000370797351485 4.58639837757e-07 0)
(0.000370679006442 5.80343908825e-07 0)
(0.000370533398986 7.11078951625e-07 0)
(0.000370359299692 8.52349115135e-07 0)
(0.000370155485195 1.00555544353e-06 0)
(0.000369920865223 1.17190734341e-06 0)
(0.000369654660014 1.35228447539e-06 0)
(0.000369356644843 1.54702316171e-06 0)
(0.000369027482322 1.75558772702e-06 0)
(0.000368669165914 1.9760663327e-06 0)
(0.000368285596997 2.20439991738e-06 0)
(0.000367883305612 2.43320769599e-06 0)
(0.000367472292316 2.65001369374e-06 0)
(0.000367066883226 2.83460158259e-06 0)
(0.000366686349642 2.95518550134e-06 0)
(0.000366354689564 2.96303377323e-06 0)
(0.000366098726995 2.78574170689e-06 0)
(0.000365942462474 2.3194622137e-06 0)
(0.000365897458763 1.42765298793e-06 0)
(0.000365944917446 -4.63929237766e-08 0)
(0.000366030778219 -1.97745173033e-06 0)
(0.000416110776686 3.34183342705e-06 0)
(0.000416002595224 1.37635354485e-06 0)
(0.000415885310345 -2.3688987035e-07 0)
(0.000415813297333 -1.33932322833e-06 0)
(0.000415816412616 -2.03666857034e-06 0)
(0.000415900870907 -2.43253484183e-06 0)
(0.0004160584022 -2.6142594232e-06 0)
(0.000416273728624 -2.64882143424e-06 0)
(0.000416529828455 -2.58574524797e-06 0)
(0.000416810754319 -2.46054689871e-06 0)
(0.000417102944146 -2.29817083628e-06 0)
(0.000417395572721 -2.11579991004e-06 0)
(0.000417680416119 -1.92503664524e-06 0)
(0.000417951496051 -1.73351796375e-06 0)
(0.000418204662018 -1.5460838168e-06 0)
(0.000418437188608 -1.36560946544e-06 0)
(0.000418647421777 -1.19359309467e-06 0)
(0.00041883448371 -1.03056849398e-06 0)
(0.000418998034326 -8.76394024833e-07 0)
(0.000419138082623 -7.30454534625e-07 0)
(0.000419254839777 -5.91802138211e-07 0)
(0.000419348606253 -4.59254095375e-07 0)
(0.00041941968628 -3.3146062075e-07 0)
(0.000419468324293 -2.06951734455e-07 0)
(0.000419494659221 -8.41697327447e-08 0)
(0.000419498693673 3.8507825172e-08 0)
(0.000419480276117 1.62750777306e-07 0)
(0.000419439095184 2.90261397864e-07 0)
(0.000419374686172 4.22758742852e-07 0)
(0.000419286450836 5.61959012109e-07 0)
(0.000419173692626 7.09548046626e-07 0)
(0.000419035670748 8.67140949263e-07 0)
(0.00041887167782 1.03622202852e-06 0)
(0.000418681147501 1.21805553721e-06 0)
(0.000418463800183 1.41355359042e-06 0)
(0.000418219836614 1.6230816699e-06 0)
(0.000417950190537 1.8461734242e-06 0)
(0.000417656851264 2.08111409507e-06 0)
(0.000417343263579 2.32433467641e-06 0)
(0.000417014802092 2.56953616039e-06 0)
(0.000416679293593 2.8064348173e-06 0)
(0.000416347515644 3.01899163336e-06 0)
(0.000416033514045 3.18296637308e-06 0)
(0.000415754451658 3.26267742316e-06 0)
(0.000415529479151 3.20691547149e-06 0)
(0.000415376926647 2.94454980245e-06 0)
(0.000415308844781 2.38054642081e-06 0)
(0.000415322339864 1.39880749099e-06 0)
(0.000415389900171 -1.22199015668e-07 0)
(0.000415452573361 -2.03649399163e-06 0)
(0.000462711466189 3.39653176555e-06 0)
(0.000462651190983 1.48088765066e-06 0)
(0.000462549866152 -1.34826535468e-07 0)
(0.000462463028801 -1.28560558164e-06 0)
(0.000462422516644 -2.05176812904e-06 0)
(0.000462443010311 -2.51874825487e-06 0)
(0.000462524815835 -2.76303219417e-06 0)
(0.000462660186677 -2.84669337904e-06 0)
(0.000462837609441 -2.81813304369e-06 0)
(0.000463044718524 -2.71387032612e-06 0)
(0.000463269942915 -2.56082597119e-06 0)
(0.00046350329756 -2.37843757872e-06 0)
(0.000463736635165 -2.1804633051e-06 0)
(0.000463963593884 -1.97642198356e-06 0)
(0.000464179395123 -1.77270453071e-06 0)
(0.000464380584605 -1.57341113306e-06 0)
(0.000464564768704 -1.38097254035e-06 0)
(0.000464730372048 -1.19660652526e-06 0)
(0.000464876427181 -1.02065107728e-06 0)
(0.00046500239868 -8.52806562938e-07 0)
(0.000465108039942 -6.92311210021e-07 0)
(0.000465193279116 -5.38068063842e-07 0)
(0.000465258130195 -3.88736857356e-07 0)
(0.000465302625599 -2.42800800801e-07 0)
(0.000465326767164 -9.86158392453e-08 0)
(0.000465330493209 4.55517615038e-08 0)
(0.000465313660188 1.91494726588e-07 0)
(0.000465276038218 3.41036799382e-07 0)
(0.000465217320673 4.96003480455e-07 0)
(0.000465137148865 6.58187223579e-07 0)
(0.000465035153778 8.29302150176e-07 0)
(0.000464911017747 1.010922129e-06 0)
(0.000464764559988 1.20439417327e-06 0)
(0.00046459585078 1.41071635099e-06 0)
(0.000464405359772 1.63036546766e-06 0)
(0.000464194144018 1.86305433869e-06 0)
(0.000463964080161 2.1073910964e-06 0)
(0.00046371814161 2.36040337336e-06 0)
(0.000463460713677 2.61687831907e-06 0)
(0.000463197924278 2.86845624313e-06 0)
(0.000462937940539 3.10240354878e-06 0)
(0.000462691136336 3.2999881091e-06 0)
(0.00046246996691 3.43439451822e-06 0)
(0.000462288286837 3.46819722561e-06 0)
(0.000462159750037 3.35051882641e-06 0)
(0.000462094767479 3.01451394749e-06 0)
(0.00046209587599 2.37594546301e-06 0)
(0.000462150464321 1.33798662927e-06 0)
(0.00046222733951 -1.92883356083e-07 0)
(0.000462267214414 -2.06063711068e-06 0)
(0.00050667223056 3.39894596981e-06 0)
(0.000506655270441 1.55334763382e-06 0)
(0.000506573150962 -3.7207243306e-08 0)
(0.00050648075967 -1.20757566729e-06 0)
(0.000506409483411 -2.01860047572e-06 0)
(0.000506379225605 -2.54003856089e-06 0)
(0.00050639653512 -2.83762631359e-06 0)
(0.000506459896271 -2.96731765774e-06 0)
(0.000506562936617 -2.9747523942e-06 0)
(0.000506697117724 -2.89588729802e-06 0)
(0.000506853431546 -2.75834435995e-06 0)
(0.000507023418303 -2.58287838175e-06 0)
(0.000507199676031 -2.38476821575e-06 0)
(0.000507376045591 -2.17501873929e-06 0)
(0.000507547600269 -1.96135026658e-06 0)
(0.000507710530905 -1.74898600077e-06 0)
(0.000507861984427 -1.54126528811e-06 0)
(0.000507999890703 -1.34011402694e-06 0)
(0.000508122797092 -1.14640180818e-06 0)
(0.000508229720353 -9.60211157423e-07 0)
(0.000508320019712 -7.81039611828e-07 0)
(0.000508393291668 -6.07951103642e-07 0)
(0.000508449285483 -4.39689556754e-07 0)
(0.000508487837681 -2.74764791026e-07 0)
(0.000508508823824 -1.11518705421e-07 0)
(0.000508512126114 5.18217999005e-08 0)
(0.000508497615856 2.17099704899e-07 0)
(0.00050846515037 3.86185653245e-07 0)
(0.000508414584568 5.60933867087e-07 0)
(0.000508345798081 7.43131162811e-07 0)
(0.000508258739451 9.34433340993e-07 0)
(0.000508153489505 1.13628201923e-06 0)
(0.000508030346515 1.34979320549e-06 0)
(0.000507889935908 1.5756063903e-06 0)
(0.000507733346984 1.81367957782e-06 0)
(0.000507562297772 2.0630113008e-06 0)
(0.000507379326197 2.32126526591e-06 0)
(0.000507188000028 2.58426706389e-06 0)
(0.000506993128061 2.84533606033e-06 0)
(0.000506800938443 3.09441110381e-06 0)
(0.000506619164672 3.31692926945e-06 0)
(0.000506456941906 3.49243090367e-06 0)
(0.000506324369995 3.59289778758e-06 0)
(0.000506231531647 3.58092153893e-06 0)
(0.000506186752329 3.40790654035e-06 0)
(0.000506193719727 3.01291231499e-06 0)
(0.000506247880459 2.32279162256e-06 0)
(0.000506330483723 1.25764559455e-06 0)
(0.000506409648894 -2.54350436219e-07 0)
(0.000506427832513 -2.05446064437e-06 0)
(0.000547962747122 3.35572317689e-06 0)
(0.000547984820645 1.59485103461e-06 0)
(0.000547923277978 5.0834081962e-08 0)
(0.000547831651204 -1.11523779822e-06 0)
(0.000547739601058 -1.94944900128e-06 0)
(0.000547670020995 -2.50847490599e-06 0)
(0.000547633795319 -2.84813319301e-06 0)
(0.000547634305044 -3.01789384158e-06 0)
(0.00054766964322 -3.05968990358e-06 0)
(0.000547734943799 -3.00780606091e-06 0)
(0.000547823955286 -2.88953162075e-06 0)
(0.000547930125753 -2.72608614611e-06 0)
(0.000548047253186 -2.53362266236e-06 0)
(0.000548169832806 -2.32417406035e-06 0)
(0.000548293197328 -2.10648663916e-06 0)
(0.000548413528385 -1.88672149108e-06 0)
(0.000548527794007 -1.66902744785e-06 0)
(0.000548633649392 -1.45599947633e-06 0)
(0.000548729324679 -1.24904015068e-06 0)
(0.000548813514002 -1.04864184012e-06 0)
(0.000548885273804 -8.54605590804e-07 0)
(0.000548943934376 -6.66210430879e-07 0)
(0.000548989026233 -4.8234456369e-07 0)
(0.000549020221605 -3.01607933253e-07 0)
(0.000549037290706 -1.2239402199e-07 0)
(0.000549040072308 5.70424656877e-08 0)
(0.000549028458237 2.38526205366e-07 0)
(0.000549002391674 4.2390477268e-07 0)
(0.000548961879545 6.1498979586e-07 0)
(0.000548907019589 8.13490200161e-07 0)
(0.000548838043103 1.02093135177e-06 0)
(0.000548755374517 1.23855284054e-06 0)
(0.000548659708944 1.46717612673e-06 0)
(0.000548552108395 1.70703122914e-06 0)
(0.000548434116204 1.95752908706e-06 0)
(0.000548307886893 2.21696319735e-06 0)
(0.000548176324758 2.48212088013e-06 0)
(0.000548043217838 2.74778159308e-06 0)
(0.000547913343803 3.0060781973e-06 0)
(0.000547792509196 3.24569916281e-06 0)
(0.000547687463102 3.45091849758e-06 0)
(0.000547605598533 3.60046257156e-06 0)
(0.000547554330115 3.66626248761e-06 0)
(0.000547539993509 3.61222306065e-06 0)
(0.000547566175342 3.39322484823e-06 0)
(0.000547631181684 2.9548687681e-06 0)
(0.000547725427465 2.23446697342e-06 0)
(0.00054782654059 1.16642692274e-06 0)
(0.000547903605586 -3.04498834416e-07 0)
(0.000547901601097 -2.02181372612e-06 0)
(0.000586560283001 3.27244521573e-06 0)
(0.000586617437908 1.60716228801e-06 0)
(0.000586576639144 1.26326472835e-07 0)
(0.000586489905125 -1.01580098094e-06 0)
(0.000586384594165 -1.8541725613e-06 0)
(0.000586285117177 -2.43474820769e-06 0)
(0.000586205238681 -2.80455844972e-06 0)
(0.000586152047811 -3.00674320573e-06 0)
(0.000586127337876 -3.07909535314e-06 0)
(0.000586129545277 -3.05351820835e-06 0)
(0.000586155115268 -2.95619841197e-06 0)
(0.000586199550155 -2.80811200091e-06 0)
(0.000586258109939 -2.62569538435e-06 0)
(0.000586326253855 -2.42154995824e-06 0)
(0.00058639988614 -2.20511090677e-06 0)
(0.000586475467295 -1.98324376509e-06 0)
(0.000586550037591 -1.76075594567e-06 0)
(0.000586621187728 -1.54082350027e-06 0)
(0.000586687001085 -1.32534039936e-06 0)
(0.000586745983919 -1.1152005803e-06 0)
(0.000586796994007 -9.10523715667e-07 0)
(0.000586839174113 -7.10835175637e-07 0)
(0.000586871893935 -5.15209650259e-07 0)
(0.000586894702482 -3.22386780189e-07 0)
(0.000586907291816 -1.30866106451e-07 0)
(0.000586909472572 6.10121903171e-08 0)
(0.000586901161439 2.54994880788e-07 0)
(0.000586882380813 4.52846051027e-07 0)
(0.000586853270846 6.56274727147e-07 0)
(0.000586814114271 8.66853993737e-07 0)
(0.000586765374346 1.08592529947e-06 0)
(0.000586707746161 1.31448077767e-06 0)
(0.000586642221063 1.55301524651e-06 0)
(0.000586570163019 1.80133809961e-06 0)
(0.000586493394063 2.05833364511e-06 0)
(0.000586414283178 2.32165679231e-06 0)
(0.000586335828633 2.58734969915e-06 0)
(0.0005862617174 2.84936479219e-06 0)
(0.000586196336255 3.09898159874e-06 0)
(0.000586144697003 3.32411108279e-06 0)
(0.000586112223883 3.50849413585e-06 0)
(0.000586104333172 3.63082543198e-06 0)
(0.000586125727427 3.66387109292e-06 0)
(0.000586179299444 3.5737154663e-06 0)
(0.000586264644522 3.31933146188e-06 0)
(0.000586375933632 2.85287513314e-06 0)
(0.00058650015849 2.12106685515e-06 0)
(0.000586613014574 1.07015079882e-06 0)
(0.000586685371749 -3.4252013647e-07 0)
(0.000586664860291 -1.96599715154e-06 0)
(0.000622447349442 3.15388262367e-06 0)
(0.000622535953342 1.59237307066e-06 0)
(0.000622515310035 1.87775542303e-07 0)
(0.000622436018104 -9.14311252445e-07 0)
(0.000622322962402 -1.74044706416e-06 0)
(0.000622201136547 -2.32789745375e-06 0)
(0.000622086124775 -2.7160926418e-06 0)
(0.000621987743446 -2.94227713831e-06 0)
(0.000621910752111 -3.04001605198e-06 0)
(0.000621856431709 -3.03843697743e-06 0)
(0.000621823714979 -2.96209504945e-06 0)
(0.000621810139216 -2.83117465535e-06 0)
(0.000621812534965 -2.6618950273e-06 0)
(0.000621827507636 -2.46700430801e-06 0)
(0.000621851747591 -2.25629199085e-06 0)
(0.000621882213005 -2.03707606519e-06 0)
(0.000621916221929 -1.81464237537e-06 0)
(0.000621951483484 -1.59262705725e-06 0)
(0.000621986090755 -1.37334133072e-06 0)
(0.000622018491824 -1.15804260594e-06 0)
(0.000622047450397 -9.47158201755e-07 0)
(0.000622072003755 -7.40468850755e-07 0)
(0.000622091423056 -5.37259235732e-07 0)
(0.00062210517915 -3.36442465476e-07 0)
(0.000622112915847 -1.36664933095e-07 0)
(0.000622114431774 6.3602451438e-08 0)
(0.00062210967153 2.65981006682e-07 0)
(0.000622098726532 4.7210352843e-07 0)
(0.000622081845813 6.83530563207e-07 0)
(0.000622059456835 9.01658003699e-07 0)
(0.000622032196141 1.12760989388e-06 0)
(0.000622000949229 1.36210970553e-06 0)
(0.000621966898257 1.60532258288e-06 0)
(0.000621931574957 1.85666019319e-06 0)
(0.000621896914184 2.11453903527e-06 0)
(0.000621865300655 2.37608259654e-06 0)
(0.000621839597335 2.63675805673e-06 0)
(0.000621823138311 2.88993999902e-06 0)
(0.000621819661844 3.12639786669e-06 0)
(0.000621833150446 3.33371220498e-06 0)
(0.000621867536055 3.49563881384e-06 0)
(0.000621926218235 3.59146284722e-06 0)
(0.000622011347758 3.59541591594e-06 0)
(0.000622122808458 3.47627921481e-06 0)
(0.000622256956634 3.1973316217e-06 0)
(0.000622404882439 2.71694411489e-06 0)
(0.000622551346949 1.99007094366e-06 0)
(0.000622671201356 9.72645989334e-07 0)
(0.000622737426249 -3.68399340634e-07 0)
(0.0006227001329 -1.88986936945e-06 0)
(0.000655610203533 3.00418088391e-06 0)
(0.000655726917456 1.55271460683e-06 0)
(0.000655725377159 2.34682999765e-07 0)
(0.000655654954708 -8.14188362605e-07 0)
(0.000655538114904 -1.61411884671e-06 0)
(0.00065539986554 -2.19534460975e-06 0)
(0.000655256864291 -2.59081141927e-06 0)
(0.000655120883338 -2.83242762262e-06 0)
(0.000654999002371 -2.94965735953e-06 0)
(0.000654894879223 -2.96868670079e-06 0)
(0.000654809651338 -2.91210899436e-06 0)
(0.000654742766933 -2.79891937944e-06 0)
(0.000654692623776 -2.64472035947e-06 0)
(0.000654657052002 -2.46204363068e-06 0)
(0.000654633655117 -2.26072461918e-06 0)
(0.000654620038609 -2.04828554461e-06 0)
(0.000654613952327 -1.8303001763e-06 0)
(0.000654613370395 -1.61072554409e-06 0)
(0.000654616527897 -1.39219432078e-06 0)
(0.000654621929409 -1.17626699412e-06 0)
(0.000654628340589 -9.63646217264e-07 0)
(0.000654634770965 -7.54357521449e-07 0)
(0.000654640453632 -5.47901451578e-07 0)
(0.000654644825751 -3.43382494689e-07 0)
(0.000654647512468 -1.39620198155e-07 0)
(0.000654648315927 6.47522200531e-08 0)
(0.000654647210434 2.71196566986e-07 0)
(0.000654644344354 4.81180517703e-07 0)
(0.000654640048946 6.9608538608e-07 0)
(0.000654634853973 9.17105429626e-07 0)
(0.000654629509455 1.14513301341e-06 0)
(0.000654625012283 1.38062358212e-06 0)
(0.000654622635461 1.62343400745e-06 0)
(0.000654623956377 1.87262755691e-06 0)
(0.00065463087856 2.12623867962e-06 0)
(0.000654645638675 2.38099129279e-06 0)
(0.000654670787014 2.63196568031e-06 0)
(0.00065470912525 2.8722121147e-06 0)
(0.000654763580085 3.0923146812e-06 0)
(0.000654836985667 3.27991759113e-06 0)
(0.000654931743515 3.41923952215e-06 0)
(0.000655049324107 3.49062089221e-06 0)
(0.000655189586219 3.47017266559e-06 0)
(0.00065534987297 3.3296302234e-06 0)
(0.000655523981835 3.03653416876e-06 0)
(0.000655700764936 2.55495808822e-06 0)
(0.000655863604108 1.84695243281e-06 0)
(0.000655987178936 8.76354207508e-07 0)
(0.00065604662443 -3.82597893602e-07 0)
(0.000655994243206 -1.79593051276e-06 0)
(0.000686037858801 2.82699803576e-06 0)
(0.00068617960327 1.49044979005e-06 0)
(0.000686195835396 2.67215566767e-07 0)
(0.000686134917714 -7.17650650958e-07 0)
(0.000686017064863 -1.479561965e-06 0)
(0.00068586697308 -2.04306800434e-06 0)
(0.000685701864473 -2.43561952728e-06 0)
(0.000685534880483 -2.68437708819e-06 0)
(0.00068537488121 -2.81494980021e-06 0)
(0.000685227466799 -2.8505709368e-06 0)
(0.000685095673531 -2.81169363471e-06 0)
(0.000684980678227 -2.71585453284e-06 0)
(0.000684882367586 -2.57773677675e-06 0)
(0.000684799797024 -2.40935820649e-06 0)
(0.000684731537809 -2.22033095597e-06 0)
(0.000684675930117 -2.01815177326e-06 0)
(0.000684631259034 -1.80849564676e-06 0)
(0.000684595871048 -1.59549541352e-06 0)
(0.000684568246339 -1.38199770773e-06 0)
(0.000684547039709 -1.1697910033e-06 0)
(0.000684531100295 -9.59805135985e-07 0)
(0.000684519477895 -7.52284011682e-07 0)
(0.000684511421681 -5.46934599269e-07 0)