/*--------------------------------*- C++ -*----------------------------------*\
| =========                 |                                                 |
| \\      /  F ield         | OpenFOAM: The Open Source CFD Toolbox           |
|  \\    /   O peration     | Version:  2.4.0                                 |
|   \\  /    A nd           | Web:      www.OpenFOAM.org                      |
|    \\/     M anipulation  |                                                 |
\*---------------------------------------------------------------------------*/
FoamFile
{
    version     2.0;
    format      ascii;
    class       volScalarField;
    location    "500";
    object      rho;
}
// * * * * * * * * * * * * * * * * * * * * * * * * * * * * * * * * * * * * * //

dimensions      [1 -3 0 0 0 0 0];

internalField   nonuniform List<scalar> 
2500
(
1.00001764338
1.00001820564
1.00001823118
1.00001814533
1.00001794231
1.00001767176
1.00001735612
1.00001701291
1.00001665182
1.00001627877
1.0000158973
1.00001550971
1.00001511753
1.00001472185
1.00001432349
1.00001392304
1.00001352098
1.00001311765
1.00001271335
1.00001230828
1.00001190262
1.0000114965
1.00001109005
1.00001068334
1.00001027646
1.00000986947
1.00000946244
1.00000905542
1.00000864848
1.00000824171
1.0000078352
1.00000742907
1.00000702347
1.00000661858
1.00000621466
1.00000581202
1.0000054111
1.00000501245
1.00000461683
1.00000422526
1.00000383923
1.00000346095
1.00000309389
1.00000274399
1.00000242136
1.00000214498
1.00000194255
1.00000187448
1.00000196875
1.000002652
1.00001811355
1.00001835656
1.00001821627
1.00001803854
1.00001779646
1.00001751883
1.00001721119
1.00001688175
1.00001653564
1.00001617689
1.00001580841
1.00001543238
1.00001505042
1.00001466377
1.0000142734
1.00001388003
1.00001348427
1.00001308659
1.00001268737
1.00001228692
1.0000118855
1.00001148333
1.00001108059
1.00001067744
1.00001027403
1.00000987049
1.00000946695
1.00000906356
1.00000866045
1.00000825778
1.00000785574
1.00000745453
1.00000705441
1.00000665569
1.00000625877
1.00000586411
1.00000547233
1.00000508422
1.00000470077
1.00000432334
1.00000395368
1.00000359421
1.0000032482
1.00000292029
1.00000261664
1.00000234696
1.00000212005
1.0000019671
1.00000187534
1.0000021634
1.00001854228
1.00001853545
1.00001831408
1.00001808608
1.00001781584
1.00001752177
1.00001720528
1.00001687142
1.00001652344
1.00001616424
1.00001579609
1.0000154208
1.00001503978
1.00001465415
1.0000142648
1.00001387244
1.00001347764
1.00001308088
1.00001268252
1.00001228289
1.00001188224
1.0000114808
1.00001107877
1.00001067631
1.00001027358
1.00000987072
1.00000946788
1.0000090652
1.00000866283
1.00000826094
1.00000785973
1.00000745941
1.00000706025
1.00000666258
1.00000626677
1.00000587331
1.0000054828
1.000005096
1.00000471386
1.0000043376
1.0000039688
1.00000360948
1.00000326224
1.00000293051
1.0000026183
1.00000233159
1.00000207388
1.00000186397
1.00000167566
1.00000169052
1.00001886395
1.00001869842
1.000018417
1.00001814411
1.00001784619
1.0000175337
1.0000172058
1.00001686515
1.00001651343
1.00001615245
1.00001578372
1.00001540857
1.00001502814
1.00001464334
1.00001425494
1.00001386359
1.00001346982
1.00001307406
1.00001267669
1.000012278
1.00001187827
1.00001147772
1.00001107655
1.00001067494
1.00001027305
1.00000987103
1.00000946904
1.00000906723
1.00000866577
1.00000826482
1.0000078646
1.00000746534
1.00000706729
1.00000667078
1.00000627619
1.00000588399
1.00000549473
1.00000510912
1.00000472799
1.00000435237
1.00000398354
1.00000362303
1.00000327264
1.00000293452
1.00000261088
1.00000230486
1.0000020168
1.00000175656
1.00000149687
1.00000133847
1.00001911664
1.00001884836
1.00001852552
1.00001821687
1.00001789525
1.0000175653
1.00001722514
1.00001687589
1.00001651831
1.00001615342
1.00001578218
1.00001540549
1.00001502418
1.00001463897
1.00001425049
1.00001385926
1.00001346576
1.00001307036
1.0000126734
1.00001227518
1.00001187593
1.00001147588
1.00001107522
1.00001067412
1.00001027274
1.00000987125
1.00000946979
1.00000906851
1.00000866759
1.00000826719
1.00000786752
1.00000746878
1.00000707125
1.00000667521
1.00000628103
1.0000058891
1.00000549993
1.00000511409
1.00000473229
1.00000435532
1.00000398412
1.00000361976
1.00000326339
1.00000291626
1.00000257942
1.00000225425
1.00000193962
1.00000163924
1.00000133032
1.00000106206
1.00001931581
1.00001897983
1.00001862785
1.00001829071
1.00001794883
1.00001760309
1.00001725118
1.0000168932
1.00001652925
1.00001615978
1.0000157853
1.00001540638
1.00001502358
1.00001463742
1.00001424837
1.00001385686
1.00001346328
1.00001306795
1.00001267117
1.00001227319
1.00001187424
1.00001147453
1.00001107423
1.0000106735
1.00001027252
1.00000987143
1.00000947036
1.00000906949
1.00000866896
1.00000826894
1.00000786962
1.0000074712
1.00000707392
1.00000667805
1.00000628389
1.0000058918
1.00000550219
1.00000511552
1.00000473234
1.00000435322
1.00000397881
1.00000360978
1.00000324677
1.00000289037
1.00000254085
1.00000219841
1.00000186118
1.00000152909
1.0000011855
1.00000084618
1.00001947676
1.000019095
1.00001872267
1.00001836348
1.00001800484
1.00001764529
1.00001728259
1.00001691617
1.00001654572
1.0000161713
1.0000157931
1.00001541142
1.00001502659
1.00001463898
1.00001424891
1.00001385672
1.0000134627
1.00001306712
1.00001267023
1.00001227225
1.00001187338
1.0000114738
1.00001107368
1.00001067316
1.0000102724
1.00000987153
1.0000094707
1.00000907005
1.00000866972
1.00000826987
1.00000787067
1.00000747231
1.00000707498
1.00000667893
1.0000062844
1.0000058917
1.00000550114
1.00000511308
1.0000047279
1.00000434599
1.00000396777
1.00000359358
1.0000032237
1.00000285826
1.00000249704
1.0000021395
1.00000178362
1.00000142716
1.0000010594
1.00000067331
1.00001960933
1.00001919558
1.00001880882
1.00001843267
1.00001806032
1.00001768895
1.0000173166
1.00001694234
1.00001656563
1.00001618624
1.00001580414
1.00001541944
1.0000150323
1.00001464292
1.00001425153
1.00001385836
1.00001346364
1.00001306757
1.00001267036
1.00001227218
1.00001187321
1.0000114736
1.00001107349
1.00001067303
1.00001027235
1.00000987158
1.00000947083
1.00000907025
1.00000866997
1.00000827011
1.00000787084
1.00000747231
1.00000707471
1.00000667821
1.00000628303
1.0000058894
1.00000549755
1.00000510773
1.00000472021
1.00000433521
1.00000395294
1.00000357354
1.00000319702
1.00000282319
1.00000245155
1.00000208114
1.00000171012
1.00000133508
1.00000095032
1.00000053258
1.0000197205
1.00001928367
1.00001888657
1.00001849737
1.00001811392
1.00001773256
1.00001735175
1.00001697038
1.00001658779
1.0000162036
1.00001581761
1.00001542978
1.00001504016
1.00001464882
1.0000142559
1.00001386155
1.00001346592
1.00001306917
1.00001267144
1.00001227289
1.00001187366
1.00001147386
1.00001107364
1.0000106731
1.00001027237
1.00000987155
1.00000947076
1.00000907011
1.00000866972
1.00000826971
1.0000078702
1.00000747133
1.00000707324
1.00000667608
1.00000628002
1.00000588522
1.00000549184
1.00000510004
1.00000470998
1.00000432176
1.00000393544
1.00000355099
1.00000316824
1.00000278682
1.00000240609
1.0000020249
1.00000164174
1.0000012526
1.00000085575
1.00000041603
1.00001981507
1.00001936104
1.0000189564
1.00001855711
1.0000181647
1.00001777498
1.00001738685
1.00001699914
1.00001661116
1.00001622243
1.00001583269
1.00001544176
1.0000150496
1.0000146562
1.00001426163
1.00001386595
1.00001346927
1.00001307169
1.00001267332
1.00001227426
1.00001187463
1.00001147453
1.00001107407
1.00001067334
1.00001027243
1.00000987146
1.0000094705
1.00000906967
1.00000866905
1.00000826874
1.00000786885
1.0000074695
1.00000707078
1.00000667281
1.0000062757
1.00000587957
1.00000548452
1.00000509063
1.00000469796
1.00000430654
1.0000039163
1.0000035271
1.00000313867
1.00000275053
1.000002362
1.00000197187
1.00000157903
1.00000117915
1.00000077362
1.00000031819
1.00001989644
1.00001942922
1.000019019
1.00001861183
1.0000182122
1.0000178155
1.00001742109
1.00001702779
1.00001663494
1.00001624203
1.00001584873
1.0000154548
1.00001506013
1.00001466466
1.00001426838
1.0000138713
1.00001347347
1.00001307496
1.00001267583
1.00001227616
1.00001187604
1.00001147553
1.00001107473
1.0000106737
1.00001027253
1.0000098713
1.00000947009
1.00000906896
1.00000866801
1.0000082673
1.00000786693
1.00000746697
1.00000706751
1.00000666861
1.00000627036
1.00000587281
1.00000547602
1.00000508001
1.00000468477
1.00000429025
1.00000389632
1.00000350276
1.00000310924
1.00000271523
1.00000232007
1.00000192258
1.00000152204
1.00000111394
1.00000070208
1.00000023513
1.00001996705
1.00001948944
1.00001907503
1.00001866165
1.00001825616
1.00001785367
1.0000174539
1.00001705571
1.00001665852
1.0000162618
1.00001586519
1.00001546842
1.00001507134
1.00001467382
1.00001427582
1.00001387731
1.00001347828
1.00001307878
1.00001267883
1.00001227848
1.00001187778
1.00001147679
1.00001107557
1.00001067417
1.00001027266
1.00000987109
1.00000946953
1.00000906804
1.00000866667
1.00000826549
1.00000786455
1.00000746391
1.00000706362
1.00000666373
1.00000626427
1.00000586528
1.00000546674
1.00000506865
1.00000467094
1.0000042735
1.00000387615
1.00000347865
1.00000308062
1.00000268154
1.00000228079
1.00000187727
1.00000147059
1.00000105617
1.00000063964
1.00000016403
1.00002002867
1.00001954272
1.0000191251
1.00001870678
1.00001829653
1.00001788922
1.00001748488
1.00001708246
1.00001668143
1.00001628127
1.00001588163
1.00001548222
1.00001508284
1.00001468336
1.00001428368
1.00001388374
1.00001348351
1.00001308298
1.00001268217
1.00001228109
1.00001187977
1.00001147824
1.00001107654
1.00001067471
1.00001027279
1.00000987083
1.00000946887
1.00000906695
1.00000866511
1.00000826339
1.00000786182
1.00000746045
1.0000070593
1.00000665838
1.00000625771
1.00000585727
1.00000545703
1.00000505694
1.00000465689
1.00000425675
1.00000385631
1.00000345528
1.0000030533
1.00000264987
1.00000224444
1.00000183599
1.00000142441
1.00000100507
1.00000058505
1.00000010279
1.00002008263
1.00001958984
1.00001916974
1.00001874745
1.00001833332
1.000017922
1.00001751379
1.00001710771
1.0000167033
1.00001630008
1.00001589769
1.00001549585
1.00001509434
1.000014693
1.00001429171
1.00001389038
1.00001348896
1.00001308741
1.00001268572
1.00001228389
1.00001188191
1.00001147981
1.0000110776
1.0000106753
1.00001027294
1.00000987054
1.00000946813
1.00000906574
1.00000866338
1.00000826109
1.00000785887
1.00000745675
1.00000705471
1.00000665277
1.0000062509
1.00000584906
1.00000544719
1.00000504522
1.00000464301
1.0000042404
1.00000383717
1.00000343303
1.00000302763
1.00000262049
1.00000221114
1.00000179866
1.00000138317
1.00000095998
1.00000053731
1.00000004985
1.00002012991
1.00001963146
1.00001920942
1.0000187839
1.00001836659
1.00001795193
1.00001754045
1.00001713122
1.00001672387
1.00001631793
1.00001591308
1.00001550904
1.00001510557
1.00001470249
1.00001429968
1.00001389703
1.00001349446
1.00001309192
1.00001268936
1.00001228677
1.00001188414
1.00001148144
1.0000110787
1.00001067591
1.00001027307
1.00000987022
1.00000946734
1.00000906445
1.00000866156
1.00000825868
1.0000078558
1.00000745292
1.00000705002
1.00000664707
1.00000624404
1.00000584087
1.00000543748
1.00000503377
1.00000462958
1.00000422475
1.00000381904
1.00000341218
1.00000300383
1.00000259355
1.00000218095
1.00000176516
1.00000134653
1.0000009203
1.00000049562
1.00000000402
1.00002017128
1.0000196681
1.00001924451
1.00001881637
1.00001839645
1.000017979
1.00001756475
1.00001715284
1.00001674293
1.00001633462
1.00001592758
1.00001552155
1.0000151163
1.00001471164
1.00001430743
1.00001390354
1.00001349988
1.00001309638
1.00001269299
1.00001228966
1.00001188637
1.00001148309
1.00001107981
1.00001067652
1.00001027321
1.00000986988
1.00000946652
1.00000906314
1.00000865971
1.00000825624
1.00000785271
1.00000744908
1.00000704535
1.00000664144
1.00000623733
1.00000583292
1.00000542812
1.00000502281
1.00000461684
1.00000421003
1.00000380215
1.00000339293
1.00000298206
1.00000256913
1.00000215382
1.00000173533
1.00000131418
1.00000088554
1.0000004593
0.999999964376
1.00002020732
1.00001970017
1.00001927535
1.00001884507
1.00001842299
1.00001800322
1.00001758665
1.00001717245
1.00001676034
1.00001634996
1.00001594101
1.00001553322
1.00001512637
1.00001472027
1.00001431477
1.00001390974
1.00001350507
1.00001310068
1.0000126965
1.00001229247
1.00001188854
1.00001148469
1.00001108089
1.00001067711
1.00001027333
1.00000986954
1.00000946571
1.00000906183
1.00000865789
1.00000825384
1.00000784968
1.00000744535
1.00000704082
1.00000663603
1.0000062309
1.00000582535
1.00000541928
1.00000501254
1.00000460499
1.00000419644
1.00000378667
1.00000337542
1.0000029624
1.00000254726
1.0000021297
1.00000170902
1.00000128583
1.00000085527
1.00000042782
0.99999993021
1.00002023848
1.000019728
1.00001930221
1.00001887016
1.00001844631
1.00001802462
1.0000176061
1.00001718997
1.00001677599
1.00001636383
1.00001595321
1.00001554388
1.00001513562
1.00001472824
1.00001432159
1.00001391553
1.00001350994
1.00001310472
1.00001269981
1.00001229512
1.00001189061
1.00001148622
1.00001108192
1.00001067767
1.00001027344
1.0000098692
1.00000946492
1.00000906058
1.00000865613
1.00000825155
1.0000078468
1.00000744182
1.00000703656
1.00000663094
1.0000062249
1.00000581833
1.00000541111
1.00000500311
1.00000459418
1.00000418412
1.00000377272
1.00000335974
1.00000294492
1.00000252793
1.00000210853
1.00000168605
1.00000126123
1.00000082914
1.00000040075
0.999999900952
1.00002026513
1.00001975187
1.00001932529
1.00001889181
1.00001846651
1.00001804324
1.0000176231
1.00001720535
1.0000167898
1.00001637613
1.00001596408
1.00001555342
1.00001514393
1.00001473543
1.00001432777
1.00001392079
1.00001351438
1.00001310843
1.00001270285
1.00001229757
1.00001189251
1.00001148763
1.00001108287
1.00001067819
1.00001027354
1.00000986888
1.00000946419
1.00000905941
1.0000086545
1.00000824943
1.00000784413
1.00000743856
1.00000703264
1.00000662629
1.00000621943
1.00000581196
1.00000540374
1.00000499465
1.00000458451
1.00000417316
1.00000376039
1.00000334596
1.00000292963
1.00000251112
1.00000209021
1.00000166629
1.00000124015
1.00000080684
1.00000037772
0.999999876155
1.00002028753
1.00001977199
1.00001934478
1.00001891014
1.00001848367
1.00001805911
1.00001763765
1.00001721857
1.00001680171
1.00001638677
1.00001597353
1.00001556174
1.00001515121
1.00001474176
1.00001433322
1.00001392545
1.00001351832
1.00001311172
1.00001270556
1.00001229975
1.00001189422
1.00001148889
1.00001108372
1.00001067865
1.00001027362
1.00000986859
1.00000946352
1.00000905835
1.00000865303
1.00000824752
1.00000784174
1.00000743564
1.00000702914
1.00000662216
1.00000621459
1.00000580634
1.00000539727
1.00000498724
1.0000045761
1.00000416366
1.00000374974
1.00000333411
1.00000291655
1.0000024968
1.00000207468
1.00000164959
1.00000122242
1.00000078814
1.00000035845
0.999999855465
1.00002030592
1.00001978852
1.00001936083
1.00001892526
1.00001849786
1.00001807227
1.00001764976
1.0000172296
1.00001681168
1.00001639572
1.00001598149
1.00001556877
1.00001515738
1.00001474713
1.00001433786
1.00001392943
1.00001352169
1.00001311455
1.00001270789
1.00001230163
1.00001189569
1.00001148998
1.00001108445
1.00001067904
1.00001027369
1.00000986834
1.00000946293
1.00000905743
1.00000865176
1.00000824586
1.00000783968
1.00000743313
1.00000702614
1.00000661861
1.00000621046
1.00000580155
1.00000539177
1.00000498097
1.00000456899
1.00000415567
1.00000374082
1.00000332422
1.00000290568
1.00000248493
1.00000206185
1.00000163585
1.00000120786
1.00000077284
1.00000034272
0.999999838603
1.00002032044
1.0000198016
1.00001937354
1.00001893726
1.00001850915
1.00001808276
1.00001765943
1.00001723844
1.00001681969
1.00001640291
1.00001598791
1.00001557446
1.00001516238
1.0000147515
1.00001434164
1.00001393267
1.00001352445
1.00001311687
1.00001270981
1.00001230318
1.00001189689
1.00001149088
1.00001108506
1.00001067936
1.00001027374
1.00000986812
1.00000946245
1.00000905666
1.0000086507
1.0000082445
1.00000783798
1.00000743106
1.00000702367
1.00000661571
1.00000620708
1.00000579765
1.0000053873
1.00000497589
1.00000456325
1.00000414924
1.00000373365
1.0000033163
1.00000289699
1.00000247549
1.00000205167
1.00000162497
1.00000119637
1.00000076077
1.00000033033
0.999999825353
1.00002033123
1.00001981132
1.000019383
1.0000189462
1.00001851757
1.00001809061
1.00001766667
1.00001724506
1.0000168257
1.00001640833
1.00001599275
1.00001557876
1.00001516617
1.00001475481
1.00001434452
1.00001393514
1.00001352656
1.00001311863
1.00001271127
1.00001230436
1.00001189782
1.00001149156
1.00001108552
1.00001067961
1.00001027378
1.00000986796
1.00000946208
1.00000905608
1.00000864989
1.00000824345
1.00000783667
1.00000742948
1.00000702179
1.0000066135
1.00000620451
1.00000579468
1.00000538391
1.00000497204
1.00000455892
1.00000414439
1.00000372826
1.00000331036
1.00000289049
1.00000246843
1.00000204408
1.00000161688
1.00000118783
1.00000075183
1.00000032116
0.999999815551
1.00002033838
1.00001981777
1.00001938927
1.00001895214
1.00001852316
1.00001809582
1.00001767149
1.00001724948
1.00001682972
1.00001641195
1.000015996
1.00001558164
1.00001516872
1.00001475704
1.00001434645
1.00001393681
1.00001352797
1.00001311983
1.00001271225
1.00001230516
1.00001189844
1.00001149202
1.00001108583
1.00001067978
1.00001027381
1.00000986784
1.00000946182
1.00000905568
1.00000864934
1.00000824274
1.00000783579
1.00000742842
1.00000702052
1.00000661201
1.00000620277
1.00000579269
1.00000538163
1.00000496946
1.00000455602
1.00000414115
1.00000372467
1.0000033064
1.00000288616
1.00000246374
1.00000203904
1.00000161151
1.00000118218
1.00000074591
1.00000031509
0.99999980908
1.00002034193
1.00001982098
1.0000193924
1.0000189551
1.00001852595
1.00001809843
1.0000176739
1.00001725169
1.00001683173
1.00001641377
1.00001599762
1.00001558309
1.00001516999
1.00001475816
1.00001434742
1.00001393764
1.00001352869
1.00001312043
1.00001271275
1.00001230556
1.00001189876
1.00001149226
1.00001108598
1.00001067986
1.00001027382
1.00000986779
1.0000094617
1.00000905548
1.00000864907
1.00000824238
1.00000783535
1.00000742788
1.00000701988
1.00000661126
1.0000062019
1.00000579169
1.00000538049
1.00000496817
1.00000455456
1.00000413952
1.00000372287
1.00000330442
1.000002884
1.0000024614
1.00000203653
1.00000160884
1.00000117936
1.00000074297
1.00000031208
0.999999805862
1.00002034193
1.00001982098
1.0000193924
1.0000189551
1.00001852595
1.00001809843
1.0000176739
1.00001725169
1.00001683173
1.00001641377
1.00001599762
1.00001558309
1.00001516999
1.00001475816
1.00001434742
1.00001393764
1.00001352869
1.00001312043
1.00001271275
1.00001230556
1.00001189876
1.00001149226
1.00001108598
1.00001067986
1.00001027382
1.00000986779
1.0000094617
1.00000905548
1.00000864907
1.00000824238
1.00000783535
1.00000742788
1.00000701988
1.00000661126
1.0000062019
1.00000579169
1.00000538049
1.00000496817
1.00000455456
1.00000413952
1.00000372287
1.00000330442
1.000002884
1.0000024614
1.00000203653
1.00000160884
1.00000117936
1.00000074297
1.00000031208
0.999999805862
1.00002033838
1.00001981777
1.00001938927
1.00001895214
1.00001852316
1.00001809582
1.00001767149
1.00001724948
1.00001682972
1.00001641195
1.000015996
1.00001558164
1.00001516872
1.00001475704
1.00001434645
1.00001393681
1.00001352797
1.00001311983
1.00001271225
1.00001230516
1.00001189844
1.00001149202
1.00001108583
1.00001067978
1.00001027381
1.00000986784
1.00000946182
1.00000905568
1.00000864934
1.00000824274
1.00000783579
1.00000742842
1.00000702052
1.00000661201
1.00000620277
1.00000579269
1.00000538163
1.00000496946
1.00000455602
1.00000414115
1.00000372467
1.0000033064
1.00000288616
1.00000246374
1.00000203904
1.00000161151
1.00000118218
1.00000074591
1.00000031509
0.99999980908
1.00002033123
1.00001981132
1.000019383
1.0000189462
1.00001851757
1.00001809061
1.00001766667
1.00001724506
1.0000168257
1.00001640833
1.00001599275
1.00001557876
1.00001516617
1.00001475481
1.00001434452
1.00001393514
1.00001352656
1.00001311863
1.00001271127
1.00001230436
1.00001189782
1.00001149156
1.00001108552
1.00001067961
1.00001027378
1.00000986796
1.00000946208
1.00000905608
1.00000864989
1.00000824345
1.00000783667
1.00000742948
1.00000702179
1.0000066135
1.00000620451
1.00000579468
1.00000538391
1.00000497204
1.00000455892
1.00000414439
1.00000372826
1.00000331036
1.00000289049
1.00000246843
1.00000204408
1.00000161688
1.00000118783
1.00000075183
1.00000032116
0.999999815551
1.00002032044
1.0000198016
1.00001937354
1.00001893726
1.00001850915
1.00001808276
1.00001765943
1.00001723844
1.00001681969
1.00001640291
1.00001598791
1.00001557446
1.00001516238
1.0000147515
1.00001434164
1.00001393267
1.00001352445
1.00001311687
1.00001270981
1.00001230318
1.00001189689
1.00001149088
1.00001108506
1.00001067936
1.00001027374
1.00000986812
1.00000946245
1.00000905666
1.0000086507
1.0000082445
1.00000783798
1.00000743106
1.00000702367
1.00000661571
1.00000620708
1.00000579765
1.0000053873
1.00000497589
1.00000456325
1.00000414924
1.00000373365
1.0000033163
1.00000289699
1.00000247549
1.00000205167
1.00000162497
1.00000119637
1.00000076077
1.00000033033
0.999999825353
1.00002030592
1.00001978852
1.00001936083
1.00001892526
1.00001849786
1.00001807227
1.00001764976
1.0000172296
1.00001681168
1.00001639572
1.00001598149
1.00001556877
1.00001515738
1.00001474713
1.00001433786
1.00001392943
1.00001352169
1.00001311455
1.00001270789
1.00001230163
1.00001189569
1.00001148998
1.00001108445
1.00001067904
1.00001027369
1.00000986834
1.00000946293
1.00000905743
1.00000865176
1.00000824586
1.00000783968
1.00000743313
1.00000702614
1.00000661861
1.00000621046
1.00000580155
1.00000539177
1.00000498097
1.00000456899
1.00000415567
1.00000374082
1.00000332422
1.00000290568
1.00000248493
1.00000206185
1.00000163585
1.00000120786
1.00000077284
1.00000034272
0.999999838603
1.00002028753
1.00001977199
1.00001934478
1.00001891014
1.00001848367
1.00001805911
1.00001763765
1.00001721857
1.00001680171
1.00001638677
1.00001597353
1.00001556174
1.00001515121
1.00001474176
1.00001433322
1.00001392545
1.00001351832
1.00001311172
1.00001270556
1.00001229975
1.00001189422
1.00001148889
1.00001108372
1.00001067865
1.00001027362
1.00000986859
1.00000946352
1.00000905835
1.00000865303
1.00000824752
1.00000784174
1.00000743564
1.00000702914
1.00000662216
1.00000621459
1.00000580634
1.00000539727
1.00000498724
1.0000045761
1.00000416366
1.00000374974
1.00000333411
1.00000291655
1.0000024968
1.00000207468
1.00000164959
1.00000122242
1.00000078814
1.00000035845
0.999999855465
1.00002026513
1.00001975187
1.00001932529
1.00001889181
1.00001846651
1.00001804324
1.0000176231
1.00001720535
1.0000167898
1.00001637613
1.00001596408
1.00001555342
1.00001514393
1.00001473543
1.00001432777
1.00001392079
1.00001351438
1.00001310843
1.00001270285
1.00001229757
1.00001189251
1.00001148763
1.00001108287
1.00001067819
1.00001027354
1.00000986888
1.00000946419
1.00000905941
1.0000086545
1.00000824943
1.00000784413
1.00000743856
1.00000703264
1.00000662629
1.00000621943
1.00000581196
1.00000540374
1.00000499465
1.00000458451
1.00000417316
1.00000376039
1.00000334596
1.00000292963
1.00000251112
1.00000209021
1.00000166629
1.00000124015
1.00000080684
1.00000037772
0.999999876155
1.00002023848
1.000019728
1.00001930221
1.00001887016
1.00001844631
1.00001802462
1.0000176061
1.00001718997
1.00001677599
1.00001636383
1.00001595321
1.00001554388
1.00001513562
1.00001472824
1.00001432159
1.00001391553
1.00001350994
1.00001310472
1.00001269981
1.00001229512
1.00001189061
1.00001148622
1.00001108192
1.00001067767
1.00001027344
1.0000098692
1.00000946492
1.00000906058
1.00000865613
1.00000825155
1.0000078468
1.00000744182
1.00000703656
1.00000663094
1.0000062249
1.00000581833
1.00000541111
1.00000500311
1.00000459418
1.00000418412
1.00000377272
1.00000335974
1.00000294492
1.00000252793
1.00000210853
1.00000168605
1.00000126123
1.00000082914
1.00000040075
0.999999900952
1.00002020732
1.00001970017
1.00001927535
1.00001884507
1.00001842299
1.00001800322
1.00001758665
1.00001717245
1.00001676034
1.00001634996
1.00001594101
1.00001553322
1.00001512637
1.00001472027
1.00001431477
1.00001390974
1.00001350507
1.00001310068
1.0000126965
1.00001229247
1.00001188854
1.00001148469
1.00001108089
1.00001067711
1.00001027333
1.00000986954
1.00000946571
1.00000906183
1.00000865789
1.00000825384
1.00000784968
1.00000744535
1.00000704082
1.00000663603
1.0000062309
1.00000582535
1.00000541928
1.00000501254
1.00000460499
1.00000419644
1.00000378667
1.00000337542
1.0000029624
1.00000254726
1.0000021297
1.00000170902
1.00000128583
1.00000085527
1.00000042782
0.99999993021
1.00002017128
1.0000196681
1.00001924451
1.00001881637
1.00001839645
1.000017979
1.00001756475
1.00001715284
1.00001674293
1.00001633462
1.00001592758
1.00001552155
1.0000151163
1.00001471164
1.00001430743
1.00001390354
1.00001349988
1.00001309638
1.00001269299
1.00001228966
1.00001188637
1.00001148309
1.00001107981
1.00001067652
1.00001027321
1.00000986988
1.00000946652
1.00000906314
1.00000865971
1.00000825624
1.00000785271
1.00000744908
1.00000704535
1.00000664144
1.00000623733
1.00000583292
1.00000542812
1.00000502281
1.00000461684
1.00000421003
1.00000380215
1.00000339293
1.00000298206
1.00000256913
1.00000215382
1.00000173533
1.00000131418
1.00000088554
1.0000004593
0.999999964376
1.00002012991
1.00001963146
1.00001920942
1.0000187839
1.00001836659
1.00001795193
1.00001754045
1.00001713122
1.00001672387
1.00001631793
1.00001591308
1.00001550904
1.00001510557
1.00001470249
1.00001429968
1.00001389703
1.00001349446
1.00001309192
1.00001268936
1.00001228677
1.00001188414
1.00001148144
1.0000110787
1.00001067591
1.00001027307
1.00000987022
1.00000946734
1.00000906445
1.00000866156
1.00000825868
1.0000078558
1.00000745292
1.00000705002
1.00000664707
1.00000624404
1.00000584087
1.00000543748
1.00000503377
1.00000462958
1.00000422475
1.00000381904
1.00000341218
1.00000300383
1.00000259355
1.00000218095
1.00000176516
1.00000134653
1.0000009203
1.00000049562
1.00000000402
1.00002008263
1.00001958984
1.00001916974
1.00001874745
1.00001833332
1.000017922
1.00001751379
1.00001710771
1.0000167033
1.00001630008
1.00001589769
1.00001549585
1.00001509434
1.000014693
1.00001429171
1.00001389038
1.00001348896
1.00001308741
1.00001268572
1.00001228389
1.00001188191
1.00001147981
1.0000110776
1.0000106753
1.00001027294
1.00000987054
1.00000946813
1.00000906574
1.00000866338
1.00000826109
1.00000785887
1.00000745675
1.00000705471
1.00000665277
1.0000062509
1.00000584906
1.00000544719
1.00000504522
1.00000464301
1.0000042404
1.00000383717
1.00000343303
1.00000302763
1.00000262049
1.00000221114
1.00000179866
1.00000138317
1.00000095998
1.00000053731
1.00000004985
1.00002002867
1.00001954272
1.0000191251
1.00001870678
1.00001829653
1.00001788922
1.00001748488
1.00001708246
1.00001668143
1.00001628127
1.00001588163
1.00001548222
1.00001508284
1.00001468336
1.00001428368
1.00001388374
1.00001348351
1.00001308298
1.00001268217
1.00001228109
1.00001187977
1.00001147824
1.00001107654
1.00001067471
1.00001027279
1.00000987083
1.00000946887
1.00000906695
1.00000866511
1.00000826339
1.00000786182
1.00000746045
1.0000070593
1.00000665838
1.00000625771
1.00000585727
1.00000545703
1.00000505694
1.00000465689
1.00000425675
1.00000385631
1.00000345528
1.0000030533
1.00000264987
1.00000224444
1.00000183599
1.00000142441
1.00000100507
1.00000058505
1.00000010279
1.00001996705
1.00001948944
1.00001907503
1.00001866165
1.00001825616
1.00001785367
1.0000174539
1.00001705571
1.00001665852
1.0000162618
1.00001586519
1.00001546842
1.00001507134
1.00001467382
1.00001427582
1.00001387731
1.00001347828
1.00001307878
1.00001267883
1.00001227848
1.00001187778
1.00001147679
1.00001107557
1.00001067417
1.00001027266
1.00000987109
1.00000946953
1.00000906804
1.00000866667
1.00000826549
1.00000786455
1.00000746391
1.00000706362
1.00000666373
1.00000626427
1.00000586528
1.00000546674
1.00000506865
1.00000467094
1.0000042735
1.00000387615
1.00000347865
1.00000308062
1.00000268154
1.00000228079
1.00000187727
1.00000147059
1.00000105617
1.00000063964
1.00000016403
1.00001989644
1.00001942922
1.000019019
1.00001861183
1.0000182122
1.0000178155
1.00001742109
1.00001702779
1.00001663494
1.00001624203
1.00001584873
1.0000154548
1.00001506013
1.00001466466
1.00001426838
1.0000138713
1.00001347347
1.00001307496
1.00001267583
1.00001227616
1.00001187604
1.00001147553
1.00001107473
1.0000106737
1.00001027253
1.0000098713
1.00000947009
1.00000906896
1.00000866801
1.0000082673
1.00000786693
1.00000746697
1.00000706751
1.00000666861
1.00000627036
1.00000587281
1.00000547602
1.00000508001
1.00000468477
1.00000429025
1.00000389632
1.00000350276
1.00000310924
1.00000271523
1.00000232007
1.00000192258
1.00000152204
1.00000111394
1.00000070208
1.00000023513
1.00001981507
1.00001936104
1.0000189564
1.00001855711
1.0000181647
1.00001777498
1.00001738685
1.00001699914
1.00001661116
1.00001622243
1.00001583269
1.00001544176
1.0000150496
1.0000146562
1.00001426163
1.00001386595
1.00001346927
1.00001307169
1.00001267332
1.00001227426
1.00001187463
1.00001147453
1.00001107407
1.00001067334
1.00001027243
1.00000987146
1.0000094705
1.00000906967
1.00000866905
1.00000826874
1.00000786885
1.0000074695
1.00000707078
1.00000667281
1.0000062757
1.00000587957
1.00000548452
1.00000509063
1.00000469796
1.00000430654
1.0000039163
1.0000035271
1.00000313867
1.00000275053
1.000002362
1.00000197187
1.00000157903
1.00000117915
1.00000077362
1.00000031819
1.0000197205
1.00001928367
1.00001888657
1.00001849737
1.00001811392
1.00001773256
1.00001735175
1.00001697038
1.00001658779
1.0000162036
1.00001581761
1.00001542978
1.00001504016
1.00001464882
1.0000142559
1.00001386155
1.00001346592
1.00001306917
1.00001267144
1.00001227289
1.00001187366
1.00001147386
1.00001107364
1.0000106731
1.00001027237
1.00000987155
1.00000947076
1.00000907011
1.00000866972
1.00000826971
1.0000078702
1.00000747133
1.00000707324
1.00000667608
1.00000628002
1.00000588522
1.00000549184
1.00000510004
1.00000470998
1.00000432176
1.00000393544
1.00000355099
1.00000316824
1.00000278682
1.00000240609
1.0000020249
1.00000164174