/*--------------------------------*- C++ -*----------------------------------*\
| =========                 |                                                 |
| \\      /  F ield         | OpenFOAM: The Open Source CFD Toolbox           |
|  \\    /   O peration     | Version:  2.4.0                                 |
|   \\  /    A nd           | Web:      www.OpenFOAM.org                      |
|    \\/     M anipulation  |                                                 |
\*---------------------------------------------------------------------------*/
FoamFile
{
    version     2.0;
    format      ascii;
    class       volScalarField;
    location    "500";
    object      rho;
}
// * * * * * * * * * * * * * * * * * * * * * * * * * * * * * * * * * * * * * //

dimensions      [1 -3 0 0 0 0 0];

internalField   nonuniform List<scalar> 
2500
(
0.809329456691
0.835331602014
0.851583439426
0.863025011398
0.871040934671
0.877416433571
0.882641069077
0.887133553467
0.891082998158
0.894630656605
0.897864405332
0.90084995705
0.903634878432
0.906255934206
0.908741639164
0.911114705203
0.913393377759
0.915592502953
0.917724243114
0.919798627419
0.921823957246
0.923807120559
0.925753834418
0.927668836246
0.929556035223
0.931418633307
0.933259222211
0.93507986118
0.936882138961
0.938667222347
0.940435892608
0.942188570217
0.943925326261
0.94564587755
0.947349555199
0.949035233574
0.950701177302
0.952344764727
0.9539619378
0.955546310685
0.957087564498
0.95856946186
0.959967754962
0.961251414506
0.962400424938
0.96344406577
0.964667384937
0.966645278278
0.971582800643
0.977523078223
0.822328278536
0.838373379963
0.850880645714
0.861238324005
0.869176653191
0.875787793402
0.881295742575
0.886050441567
0.890221094307
0.893952320023
0.897337757482
0.9004497276
0.903341022004
0.906052647519
0.90861637642
0.911057488051
0.913396252131
0.915649146456
0.917829668201
0.919948961971
0.922016280241
0.924039341013
0.926024603792
0.927977488332
0.9299025493
0.931803618186
0.933683920071
0.935546171379
0.937392663244
0.939225334374
0.941045836529
0.942855595844
0.944655872125
0.946447820461
0.948232554677
0.950011223401
0.951785084436
0.9535556205
0.955324616756
0.957094413939
0.9588680127
0.960650077055
0.962448075982
0.964277328923
0.966174495263
0.9682134645
0.970630948544
0.973712166158
0.978798464827
0.985017482442
0.842938581134
0.850367962717
0.85799480628
0.865457491086
0.87185579969
0.877572048719
0.882544611633
0.886964412662
0.890916086486
0.894499318567
0.897781189677
0.900818846551
0.903655587584
0.90632654252
0.908859622693
0.911277553693
0.913598853156
0.915838782865
0.918009978786
0.920122971844
0.922186575911
0.92420819932
0.926194089684
0.928149532251
0.930079011184
0.931986343278
0.933874790375
0.935747155982
0.937605870311
0.93945306765
0.941290659188
0.943120405088
0.944943987558
0.94676309087
0.948579483655
0.950395120488
0.952212224776
0.954033431835
0.955861798211
0.957701120698
0.959555696471
0.961432007717
0.963338735559
0.965297649351
0.967351870007
0.969623012588
0.972375953021
0.976221931541
0.982319031912
0.992344591306
0.864858187418
0.865006086782
0.867750600285
0.871837878542
0.876230997357
0.880659174498
0.884812270979
0.888687396158
0.892266037802
0.895585309407
0.898674925102
0.901569199325
0.904296850874
0.906883572381
0.909350913015
0.911717238879
0.91399799147
0.916206227582
0.918352972468
0.920447567983
0.922497943217
0.92451084835
0.92649204575
0.928446471455
0.930378370658
0.932291413528
0.93418879526
0.936073324381
0.937947502386
0.93981359792
0.941673717735
0.943529878191
0.945384077368
0.94723837647
0.949094980119
0.950956350982
0.952825295209
0.954705201365
0.956600101001
0.958515542122
0.96045855657
0.962442050449
0.964484378746
0.966632114411
0.968953540887
0.971650001135
0.974965799806
0.979731304549
0.986362417271
0.997995257268
0.886279314598
0.880702758753
0.879130676784
0.879955847029
0.882198514406
0.885111744613
0.888227099558
0.891364616925
0.894411206839
0.897336475339
0.900128294898
0.902793073348
0.905341030588
0.907785237148
0.910138453089
0.912412796828
0.914619172448
0.916767284165
0.918865637994
0.920921658527
0.922941800419
0.924931672997
0.926896154159
0.928839496997
0.930765425624
0.932677222216
0.934577806161
0.9364698075
0.938355636537
0.940237552507
0.9421177333
0.94399835175
0.945881658672
0.947770089157
0.949666378708
0.951573757131
0.953496126347
0.955438548013
0.95740749845
0.95941255291
0.961466455147
0.963592247019
0.965820163787
0.968220441788
0.970871127096
0.974015953763
0.977801911005
0.983110185592
0.989614265439
1.00096781487
0.905087347475
0.895565216732
0.890658265413
0.888754201695
0.889011584806
0.890418553278
0.892434748592
0.894748214063
0.897175002503
0.89962479933
0.90204703825
0.90442023917
0.906735463402
0.90899204927
0.911192898583
0.913342888394
0.915447531227
0.917512450496
0.919543022935
0.921544246049
0.923520676222
0.925476430689
0.927415213712
0.929340359879
0.931254883987
0.933161534932
0.935062851447
0.936961220002
0.938858935622
0.940758268277
0.942661536681
0.944571196784
0.946489944624
0.948420857409
0.95036755253
0.952334462306
0.954327084138
0.956352664811
0.958420507553
0.960544192842
0.962741186672
0.965041644536
0.96748113647
0.970139806161
0.973085076803
0.976560284697
0.980598166826
0.986013376883
0.992008061801
1.00206873315
0.92032450936
0.908614011873
0.901487667074
0.897542895421
0.8961339717
0.896178703602
0.897134315174
0.898611833337
0.900384047865
0.902315074342
0.904323521786
0.906363333452
0.908407929551
0.910443313267
0.912462480213
0.91446277595
0.91644395686
0.918407183055
0.920354340196
0.922287670014
0.924209541183
0.926122328714
0.928028350769
0.929929845793
0.931828973352
0.933727831633
0.935628486455
0.937533010111
0.939443529309
0.941362284241
0.943291699628
0.945234475872
0.94719369792
0.949172990762
0.9511766917
0.953210160445
0.955280037507
0.957395016409
0.959566068606
0.961808908335
0.964142934163
0.966600791389
0.969217394347
0.972071851591
0.975213455911
0.978861488551
0.982963224029
0.98821394947
0.993635991851
1.00223541573
0.931904483659
0.919447047532
0.911112239989
0.905808544162
0.903112521119
0.902013852344
0.902016072121
0.902704604883
0.903834266255
0.9052403142
0.906819810204
0.908507372341
0.910261702521
0.91205699003
0.91387709399
0.91571214943
0.917556241511
0.919406019314
0.921259765239
0.923116823472
0.924977224909
0.926841454571
0.928710304447
0.930584786113
0.932466082017
0.934355524479
0.936254594674
0.938164937972
0.940088393421
0.942027038515
0.943983248922
0.945959781492
0.947959875925
0.949987407273
0.952047050763
0.954144595878
0.956287180607
0.958484081069
0.960746815043
0.963091642429
0.965537921325
0.968117662732
0.970862147008
0.973843246604
0.977092393769
0.980794233629
0.984845654099
0.989811353296
0.994719535996
1.00205633544
0.940303895514
0.92810004624
0.919339992667
0.913259293374
0.909646501506
0.907645724253
0.906836170033
0.90681825013
0.907349230266
0.908251441874
0.909409548259
0.910744767687
0.912204616602
0.913753610859
0.915367736366
0.917030643411
0.918731145076
0.920461577415
0.922216696704
0.923992953478
0.925788001533
0.927600371047
0.929429247984
0.931274327823
0.933135719885
0.935013888287
0.93690961992
0.938824014229
0.940758491352
0.942714818921
0.944695156191
0.94670212368
0.948738891877
0.950809322778
0.952918119399
0.955071127721
0.957275536716
0.959540639435
0.961877818771
0.964302924529
0.966834214404
0.969501303893
0.972330716233
0.975384177122
0.978678218766
0.982361152166
0.986306394496
0.990962300148
0.995445812618
1.00180400043
0.946211485482
0.934836320502
0.926180069321
0.91976775258
0.915561202729
0.912889834502
0.911420879721
0.910796862346
0.910792359398
0.911230157317
0.911990618376
0.912987335701
0.914160267427
0.915466648245
0.91687610571
0.918366771928
0.9199227916
0.921532558357
0.923187521085
0.924881356746
0.92660939769
0.928368232503
0.930155426076
0.931969323315
0.933808911939
0.935673728559
0.937563797292
0.939479594598
0.941422035989
0.943392484216
0.945392776746
0.947425280274
0.949492964355
0.951599527683
0.953749528124
0.955948660155
0.958203914073
0.960524270232
0.962920575021
0.96540767592
0.968002107084
0.970730067001
0.973612939087
0.97670136668
0.980000150634
0.983624717728
0.987441652242
0.991807211561
0.995947502649
1.00157725253
0.95030897885
0.940007482009
0.931762760278
0.92532710285
0.920785060239
0.917645962719
0.915664192119
0.914538684923
0.914070767971
0.914093718983
0.914490194793
0.915171276981
0.916072759656
0.9171469803
0.918358797958
0.919681905902
0.921096499882
0.92258751174
0.924143400201
0.925755275822
0.927416281554
0.929121145173
0.930865855887
0.93264742873
0.934463732981
0.936313368099
0.938195576075
0.940110183233
0.942057566565
0.944038643582
0.946054882751
0.948108341471
0.950201722439
0.952338480055
0.954522925876
0.956760469487
0.959057729505
0.961423131793
0.963866684084
0.966401804337
0.969042882825
0.971812161456
0.974725899357
0.977824054029
0.981102523824
0.984649690191
0.988334216537
0.992444614781
0.996307807615
1.00139903239
0.953160409934
0.94396221281
0.936272602494
0.930005113961
0.92531897736
0.921877925964
0.919514060754
0.917986732746
0.917128685731
0.916790279493
0.916861394604
0.917254779146
0.917905027487
0.918761782409
0.919786675878
0.920950059421
0.922228945888
0.923605344022
0.925065099372
0.926597020817
0.928192247589
0.929843776849
0.931546112976
0.933295003886
0.935087242771
0.936920519173
0.938793308562
0.940704793293
0.942654809693
0.944643819757
0.946672903882
0.948743780484
0.950858842415
0.953021238784
0.955234950791
0.957504986726
0.959837439791
0.96223997535
0.964721517006
0.967293756517
0.969968694701
0.972764474287
0.975692546024
0.978783383349
0.982026359582
0.985489047358
0.989046238991
0.992938781246
0.996576747774
1.0012654841
0.955183447075
0.947000713613
0.939902823136
0.933906575705
0.92920809586
0.92559270107
0.922956671385
0.921116723189
0.919937912915
0.919291191275
0.919076955431
0.919212758469
0.919634419254
0.92029079598
0.92114169944
0.922155182941
0.923305834164
0.924573291902
0.925941190635
0.927396331538
0.928928065641
0.930527818395
0.932188726936
0.933905359221
0.935673496685
0.937489965691
0.939352507839
0.941259682225
0.943210794403
0.945205850089
0.947245529566
0.949331187426
0.951464866873
0.953649353695
0.95588821937
0.958185965706
0.960548029063
0.96298115568
0.965493016148
0.968093422554
0.970791920425
0.973602722575
0.976532996071
0.979605284371
0.982804346943
0.986182481614
0.989621925977
0.993330763151
0.996784178981
1.00116637411
0.956664134349
0.949359860321
0.942828764024
0.937146010741
0.932518809954
0.928822067226
0.926001956276
0.923925528464
0.922488416206
0.921583210448
0.921122655357
0.921031230256
0.921247820298
0.92172205511
0.922413136615
0.92328775863
0.924318791238
0.925484036523
0.926765317152
0.928147726564
0.929619053313
0.931169321767
0.932790431112
0.934475867358
0.936220474054
0.938020269164
0.939872299543
0.941774526748
0.94372573915
0.945725488168
0.947774044241
0.949872376014
0.952022141553
0.954225713162
0.956486187044
0.95880747754
0.961194271135
0.963652298562
0.966187895749
0.968808973096
0.97152270334
0.974339735525
0.977263575075
0.980310413305
0.983461866801
0.986759383417
0.990092583094
0.99364718736
0.996948277284
1.00109212903
0.957787628458
0.951216193806
0.945196666999
0.939831353634
0.93532303571
0.931609072221
0.92867253686
0.926422198663
0.924780964048
0.923662355707
0.922992095859
0.922702802322
0.922737697514
0.923048362756
0.923594376882
0.924341874895
0.925262637394
0.926333118392
0.927533704954
0.928848072263
0.930262668938
0.931766289665
0.933349727737
0.935005488816
0.936727556198
0.938511197848
0.940352808423
0.942249780966
0.944200403737
0.94620377991
0.948259765625
0.950368928804
0.952532517413
0.954752455471
0.957031320372
0.959372389762
0.961779550928
0.964257483606
0.966811184237
0.969446738174
0.972169126897
0.97498589468
0.977897515816
0.980915249001
0.984018659592
0.987241661318
0.990480589604
0.993905818022
0.997080478774
1.00103551561
0.958669146611
0.952696493915
0.947122206274
0.94205628364
0.937689067528
0.93399934569
0.930996315118
0.928621847927
0.926822116426
0.925529759979
0.924683207268
0.924223674829
0.924099474034
0.924264952351
0.924680813504
0.925313278951
0.926133570546
0.927117222411
0.928243526029
0.929495006892
0.930856984975
0.932317191397
0.933865444008
0.935493370331
0.937194173036
0.938962431398
0.940793934049
0.942685538928
0.944635056536
0.946641154391
0.948703278106
0.950821590707
0.952996918874
0.955230721632
0.957525037667
0.959882489668
0.962306155792
0.964799679011
0.967366769261
0.970011827091
0.972737878508
0.975549841916
0.978445745369
0.981433104328
0.984490218565
0.987645849795
0.99080218201
0.994118895698
0.997188265582
1.00099151249
0.959378738584
0.95388982472
0.948693926718
0.943898155841
0.939677266661
0.936036245443
0.933002040251
0.930541901309
0.928621159418
0.927189178124
0.926196203435
0.925591932073
0.925330073202
0.925368221494
0.925668721851
0.926198367737
0.926928247192
0.927833333377
0.928892118247
0.930086218984
0.931400022211
0.932820352931
0.93433618013
0.935938354682
0.937619379641
0.939373209771
0.941195077891
0.943081345309
0.945029373303
0.947037413781
0.949104514689
0.951230441139
0.953415601159
0.955660989337
0.957968107191
0.960338930767
0.962775751127
0.965281225922
0.967857871294
0.970508578976
0.973234676905
0.976038913347
0.978917383266
0.981874811104
0.984888779779
0.987984562972
0.991069315356
0.994295112108
0.997276726422
1.00095675339
0.959958741533
0.954858131255
0.949978328051
0.945418895056
0.941338721442
0.937758553476
0.934716909591
0.932199957392
0.930188353424
0.92864560049
0.92753249938
0.92680669525
0.926427248065
0.926355193288
0.926554820182
0.926993825642
0.927643481989
0.928478487676
0.929476783257
0.930619288208
0.931889632185
0.933273880652
0.934760274869
0.936338988768
0.938001907501
0.939742427965
0.941555281149
0.943436375116
0.945382656443
0.947391988675
0.949463043567
0.9515952057
0.953788479672
0.956043411449
0.958360985317
0.960742560762
0.963189688675
0.965704119356
0.968287293193
0.970940785045
0.97366448232
0.976459373911
0.979320054926
0.982249198015
0.985224039267
0.988267505472
0.991290909216
0.994440795659
0.99734944231
1.00092900002
0.960435063782
0.955644469636
0.951024861741
0.946667104115
0.94271547289
0.939199666131
0.936165405387
0.933612629991
0.931533954463
0.929904493884
0.928694157529
0.927867736672
0.927389325243
0.927223357087
0.927336182176
0.927696590697
0.928276255038
0.929049813224
0.929994853539
0.931091775953
0.932323608947
0.933675792662
0.935135955092
0.936693690131
0.938340346629
0.940068832006
0.941873432583
0.943749650868
0.945694058653
0.947704164872
0.94977829438
0.951915477934
0.954115343074
0.956378016192
0.958703999734
0.961094084209
0.963549146104
0.966070124386
0.968657516194
0.971311774193
0.974031589937
0.97681655063
0.979660107206
0.982563442315
0.985503683055
0.98850218316
0.991473686996
0.994560640683
0.99740900153
1.00090675265
0.960824023198
0.956278936302
0.951870128368
0.947680411587
0.943841416362
0.940387563187
0.9373688176
0.934794935114
0.932667647102
0.930971352602
0.929683573069
0.928775285716
0.928215108659
0.92797064658
0.928010269526
0.92830392618
0.928823811071
0.929544648067
0.93044382468
0.931501367241
0.932699837742
0.934024172097
0.935461491997
0.937000904628
0.938633303273
0.940351175356
0.942148422189
0.9440201921
0.94596272673
0.94797321995
0.950049685945
0.952190836633
0.954395958598
0.956664798997
0.958997426592
0.961394124244
0.963855173607
0.966380809799
0.968970725845
0.971624441451
0.974339677357
0.9771149239
0.979942774002
0.982823341295
0.985733785593
0.98869440959
0.991622747515
0.994658169835
0.997457308951
1.00088899039
0.961136291233
0.956782731536
0.95254111966
0.94848760186
0.944743386891
0.941345128471
0.938345120325
0.935759968424
0.933598187301
0.931851390094
0.9305032481
0.929529888141
0.928903813231
0.928595432308
0.928574968092
0.928813487489
0.929283746895
0.92996064077
0.930821463179
0.931845982022
0.933016406998
0.93431727783
0.935735309123
0.937259210689
0.938879499633
0.940588313404
0.942379229927
0.944247097804
0.94618787724
0.948198491648
0.950276686851
0.952420898071
0.954630115351
0.956903756355
0.959241514594
0.961643237077
0.964108699891
0.966637548376
0.969228811937
0.971881256755
0.974591835878
0.977358199649
0.980172310266
0.983033525469
0.985919110765
0.988848670161
0.991741958569
0.994736036297
0.997495778644
1.00087500655
0.961379087495
0.957170849197
0.95305759598
0.949110363563
0.94544218684
0.942090587891
0.939109016485
0.936518737464
0.934333158056
0.932549299228
0.931155597432
0.930132270258
0.929454985375
0.929096489438
0.929028592105
0.929223352518
0.929654059378
0.930295809343
0.931125871351
0.932123842477
0.933271675554
0.934553609941
0.935956044945
0.937467378326
0.939077828822
0.94077925411
0.942564971838
0.944429587867
0.946368833114
0.948379409416
0.950458841683
0.952605336591
0.954817638918
0.957094894146
0.959436486959
0.961841908036
0.96431052362
0.966841506573
0.9694333614
0.972084268856
0.974790596266
0.977549370204
0.980352101881
0.983197626129
0.986063338898
0.98896838523
0.991834230383
0.994796226412
0.997525457914
1.00086430674
0.961557374965
0.957453813163
0.953433767456
0.949564637253
0.945953455409
0.942637945541
0.939672051626
0.937080079156
0.934878795743
0.933069058537
0.931642775649
0.930583204428
0.929868410472
0.929472943052
0.929369860083
0.929532020535
0.929933160423
0.930548566732
0.931355519055
0.932333507881
0.933464308472
0.934731945009
0.936122586686
0.937624400858
0.939227384145
0.940923184607
0.942704923823
0.944567023888
0.946505041342
0.948515508792
0.950595781822
0.952743891521
0.954958394083
0.957238225969
0.959582535427
0.961990541775
0.964461301248
0.966993632629
0.969585651027
0.972235109002
0.9749379517
0.977690765739
0.98048475449
0.983318405295
0.986169236267
0.989056099741
0.991901706182
0.994840197714
0.997547109143
1.00085654635
0.96167450573
0.957638774791
0.953679445015
0.949861602751
0.946288350477
0.942997360867
0.94004274371
0.937450625473
0.935239868321
0.933413780134
0.931966530858
0.93088338691
0.930144021045
0.92972420567
0.929597857344
0.929738394229
0.930119873326
0.930717727017
0.931509256228
0.932473890851
0.933593295129
0.934851354742
0.936234088625
0.937729512338
0.939327475269
0.941019485869
0.942798534611
0.94465892028
0.94659608201
0.948606438139
0.950687229633
0.952836368541
0.955052283149
0.957333768287
0.959679812371
0.962089451985
0.96456153562
0.967094646373
0.969686642064
0.972334995203
0.975035377793
0.977784096283
0.980572162964
0.983397853722
0.986238778863
0.989113617863
0.991945893842
0.994868972962
0.997561264223
1.0008514923
0.961732568347
0.957730186339
0.953800795378
0.950008361254
0.946454044273
0.943175441525
0.940226699355
0.937634794915
0.935419594337
0.933585598511
0.932128091783
0.931033339102
0.930281818743
0.929849920675
0.929711998473
0.929841757573
0.930213422274
0.930802503222
0.931586316318
0.932544264328
0.933657958233
0.93491121598
0.936289982337
0.93778219753
0.939377637595
0.941067741225
0.942845433231
0.944704950499
0.946641673119
0.948651961856
0.95073299985
0.952882639035
0.955099243092
0.957381535362
0.9597284237
0.962138852797
0.96461156699
0.96714503169
0.969736976816
0.97238473652
0.975083848752
0.977830483791
0.980615562556
0.983437261058
0.98627323876
0.989142094966
0.99196775396
0.994883202523
0.997568260067
1.00084899995
0.961732568347
0.957730186339
0.953800795378
0.950008361254
0.946454044273
0.943175441525
0.940226699355
0.937634794915
0.935419594337
0.933585598511
0.932128091783
0.931033339102
0.930281818743
0.929849920675
0.929711998473
0.929841757573
0.930213422274
0.930802503222
0.931586316318
0.932544264328
0.933657958233
0.93491121598
0.936289982337
0.93778219753
0.939377637595
0.941067741225
0.942845433231
0.944704950499
0.946641673119
0.948651961856
0.95073299985
0.952882639035
0.955099243092
0.957381535362
0.9597284237
0.962138852797
0.96461156699
0.96714503169
0.969736976816
0.97238473652
0.975083848752
0.977830483791
0.980615562556
0.983437261058
0.98627323876
0.989142094966
0.99196775396
0.994883202523
0.997568260067
1.00084899995
0.96167450573
0.957638774791
0.953679445015
0.949861602751
0.946288350477
0.942997360867
0.94004274371
0.937450625473
0.935239868321
0.933413780134
0.931966530858
0.93088338691
0.930144021045
0.92972420567
0.929597857344
0.929738394229
0.930119873326
0.930717727017
0.931509256228
0.932473890851
0.933593295129
0.934851354742
0.936234088625
0.937729512338
0.939327475269
0.941019485869
0.942798534611
0.94465892028
0.94659608201
0.948606438139
0.950687229633
0.952836368541
0.955052283149
0.957333768287
0.959679812371
0.962089451985
0.96456153562
0.967094646373
0.969686642064
0.972334995203
0.975035377793
0.977784096283
0.980572162964
0.983397853722
0.986238778863
0.989113617863
0.991945893842
0.994868972962
0.997561264223
1.0008514923
0.961557374965
0.957453813163
0.953433767456
0.949564637253
0.945953455409
0.942637945541
0.939672051626
0.937080079156
0.934878795743
0.933069058537
0.931642775649
0.930583204428
0.929868410472
0.929472943052
0.929369860083
0.929532020535
0.929933160423
0.930548566732
0.931355519055
0.932333507881
0.933464308472
0.934731945009
0.936122586686
0.937624400858
0.939227384145
0.940923184607
0.942704923823
0.944567023888
0.946505041342
0.948515508792
0.950595781822
0.952743891521
0.954958394083
0.957238225969
0.959582535427
0.961990541775
0.964461301248
0.966993632629
0.969585651027
0.972235109002
0.9749379517
0.977690765739
0.98048475449
0.983318405295
0.986169236267
0.989056099741
0.991901706182
0.994840197714
0.997547109143
1.00085654635
0.961379087495
0.957170849197
0.95305759598
0.949110363563
0.94544218684
0.942090587891
0.939109016485
0.936518737464
0.934333158056
0.932549299228
0.931155597432
0.930132270258
0.929454985375
0.929096489438
0.929028592105
0.929223352518
0.929654059378
0.930295809343
0.931125871351
0.932123842477
0.933271675554
0.934553609941
0.935956044945
0.937467378326
0.939077828822
0.94077925411
0.942564971838
0.944429587867
0.946368833114
0.948379409416
0.950458841683
0.952605336591
0.954817638918
0.957094894146
0.959436486959
0.961841908036
0.96431052362
0.966841506573
0.9694333614
0.972084268856
0.974790596266
0.977549370204
0.980352101881
0.983197626129
0.986063338898
0.98896838523
0.991834230383
0.994796226412
0.997525457914
1.00086430674
0.961136291233
0.956782731536
0.95254111966
0.94848760186
0.944743386891
0.941345128471
0.938345120325
0.935759968424
0.933598187301
0.931851390094
0.9305032481
0.929529888141
0.928903813231
0.928595432308
0.928574968092
0.928813487489
0.929283746895
0.92996064077
0.930821463179
0.931845982022
0.933016406998
0.93431727783
0.935735309123
0.937259210689
0.938879499633
0.940588313404
0.942379229927
0.944247097804
0.94618787724
0.948198491648
0.950276686851
0.952420898071
0.954630115351
0.956903756355
0.959241514594
0.961643237077
0.964108699891
0.966637548376
0.969228811937
0.971881256755
0.974591835878
0.977358199649
0.980172310266
0.983033525469
0.985919110765
0.988848670161
0.991741958569
0.994736036297
0.997495778644
1.00087500655
0.960824023198
0.956278936302
0.951870128368
0.947680411587
0.943841416362
0.940387563187
0.9373688176
0.934794935114
0.932667647102
0.930971352602
0.929683573069
0.928775285716
0.928215108659
0.92797064658
0.928010269526
0.92830392618
0.928823811071
0.929544648067
0.93044382468
0.931501367241
0.932699837742
0.934024172097
0.935461491997
0.937000904628
0.938633303273
0.940351175356
0.942148422189
0.9440201921
0.94596272673
0.94797321995
0.950049685945
0.952190836633
0.954395958598
0.956664798997
0.958997426592
0.961394124244
0.963855173607
0.966380809799
0.968970725845
0.971624441451
0.974339677357
0.9771149239
0.979942774002
0.982823341295
0.985733785593
0.98869440959
0.991622747515
0.994658169835
0.997457308951
1.00088899039
0.960435063782
0.955644469636
0.951024861741
0.946667104115
0.94271547289
0.939199666131
0.936165405387
0.933612629991
0.931533954463
0.929904493884
0.928694157529
0.927867736672
0.927389325243
0.927223357087
0.927336182176
0.927696590697
0.928276255038
0.929049813224
0.929994853539
0.931091775953
0.932323608947
0.933675792662
0.935135955092
0.936693690131
0.938340346629
0.940068832006
0.941873432583
0.943749650868
0.945694058653
0.947704164872
0.94977829438
0.951915477934
0.954115343074
0.956378016192
0.958703999734
0.961094084209
0.963549146104
0.966070124386
0.968657516194
0.971311774193
0.974031589937
0.97681655063
0.979660107206
0.982563442315
0.985503683055
0.98850218316
0.991473686996
0.994560640683
0.99740900153
1.00090675265
0.959958741533
0.954858131255
0.949978328051
0.945418895056
0.941338721442
0.937758553476
0.934716909591
0.932199957392
0.930188353424
0.92864560049
0.92753249938
0.92680669525
0.926427248065
0.926355193288
0.926554820182
0.926993825642
0.927643481989
0.928478487676
0.929476783257
0.930619288208
0.931889632185
0.933273880652
0.934760274869
0.936338988768
0.938001907501
0.939742427965
0.941555281149
0.943436375116
0.945382656443
0.947391988675
0.949463043567
0.9515952057
0.953788479672
0.956043411449
0.958360985317
0.960742560762
0.963189688675
0.965704119356
0.968287293193
0.970940785045
0.97366448232
0.976459373911
0.979320054926
0.982249198015
0.985224039267
0.988267505472
0.991290909216
0.994440795659
0.99734944231
1.00092900002
0.959378738584
0.95388982472
0.948693926718
0.943898155841
0.939677266661
0.936036245443
0.933002040251
0.930541901309
0.928621159418
0.927189178124
0.926196203435
0.925591932073
0.925330073202
0.925368221494
0.925668721851
0.926198367737
0.926928247192
0.927833333377
0.928892118247
0.930086218984
0.931400022211
0.932820352931
0.93433618013
0.935938354682
0.937619379641
0.939373209771
0.941195077891
0.943081345309
0.945029373303
0.947037413781
0.949104514689
0.951230441139
0.953415601159
0.955660989337
0.957968107191
0.960338930767
0.962775751127
0.965281225922
0.967857871294
0.970508578976
0.973234676905
0.976038913347
0.978917383266
0.981874811104
0.984888779779
0.987984562972
0.991069315356
0.994295112108
0.997276726422
1.00095675339
0.958669146611
0.952696493915
0.947122206274
0.94205628364
0.937689067528
0.93399934569
0.930996315118
0.928621847927
0.926822116426
0.925529759979
0.924683207268
0.924223674829
0.924099474034
0.924264952351
0.924680813504
0.925313278951
0.926133570546
0.927117222411
0.928243526029
0.929495006892
0.930856984975
0.932317191397
0.933865444008
0.935493370331
0.937194173036
0.938962431398
0.940793934049
0.942685538928
0.944635056536
0.946641154391
0.948703278106
0.950821590707
0.952996918874
0.955230721632
0.957525037667
0.959882489668
0.962306155792
0.964799679011
0.967366769261
0.970011827091
0.972737878508
0.975549841916
0.978445745369
0.981433104328
0.984490218565
0.987645849795
0.99080218201
0.994118895698
0.997188265582
1.00099151249
0.957787628458
0.951216193806
0.945196666999
0.939831353634
0.93532303571
0.931609072221
0.92867253686
0.926422198663
0.924780964048
0.923662355707
0.922992095859
0.922702802322
0.922737697514
0.923048362756
0.923594376882
0.924341874895
0.925262637394
0.926333118392
0.927533704954
0.928848072263
0.930262668938
0.931766289665
0.933349727737
0.935005488816
0.936727556198
0.938511197848
0.940352808423
0.942249780966
0.944200403737
0.94620377991
0.948259765625
0.950368928804
0.952532517413
0.954752455471
0.957031320372
0.959372389762
0.961779550928
0.964257483606
0.966811184237
0.969446738174
0.972169126897
0.97498589468
0.977897515816
0.980915249001
0.984018659592
0.987241661318
0.990480589604
0.993905818022
0.997080478774
1.00103551561
0.956664134349
0.949359860321
0.942828764024
0.937146010741
0.932518809954
0.928822067226
0.926001956276
0.923925528464
0.922488416206
0.921583210448
0.921122655357
0.921031230256
0.921247820298
0.92172205511
0.922413136615
0.92328775863
0.924318791238
0.925484036523
0.926765317152
0.928147726564
0.929619053313
0.931169321767
0.932790431112
0.934475867358
0.936220474054
0.938020269164
0.939872299543
0.941774526748
0.94372573915
0.945725488168
0.947774044241
0.949872376014
0.952022141553
0.954225713162
0.956486187044
0.95880747754
0.961194271135
0.963652298562
0.966187895749
0.968808973096
0.97152270334
0.974339735525
0.977263575075
0.980310413305
0.983461866801
0.986759383417
0.990092583094
0.99364718736
0.996948277284
1.00109212903
0.955183447075
0.947000713613
0.939902823136
0.933906575705
0.92920809586
0.92559270107
0.922956671385
0.921116723189
0.919937912915
0.919291191275
0.919076955431
0.919212758469
0.919634419254
0.92029079598
0.92114169944
0.922155182941
0.923305834164
0.924573291902
0.925941190635
0.927396331538
0.928928065641
0.930527818395
0.932188726936
0.933905359221
0.935673496685
0.937489965691
0.939352507839
0.941259682225
0.943210794403
0.945205850089
0.947245529566
0.949331187426
0.951464866873
0.953649353695
0.95588821937
0.958185965706
0.960548029063
0.96298115568
0.965493016148
0.968093422554
0.970791920425
0.973602722575
0.976532996071
0.979605284371
0.982804346943
0.986182481614
0.989621925977
0.993330763151
0.996784178981
1.00116637411
0.953160409934
0.94396221281
0.936272602494
0.930005113961
0.92531897736
0.921877925964
0.919514060754
0.917986732746
0.917128685731
0.916790279493
0.916861394604
0.917254779146
0.917905027487
0.918761782409
0.919786675878
0.920950059421
0.922228945888
0.923605344022
0.925065099372
0.926597020817
0.928192247589
0.929843776849
0.931546112976
0.933295003886
0.935087242771
0.936920519173
0.938793308562
0.940704793293
0.942654809693
0.944643819757
0.946672903882
0.948743780484
0.950858842415
0.953021238784
0.955234950791
0.957504986726
0.959837439791
0.96223997535
0.964721517006
0.967293756517
0.969968694701
0.972764474287
0.975692546024
0.978783383349
0.982026359582
0.985489047358
0.989046238991
0.992938781246
0.996576747774
1.0012654841
0.95030897885
0.940007482009
0.931762760278
0.92532710285
0.920785060239
0.917645962719
0.915664192119
0.914538684923
0.914070767971
0.914093718983
0.914490194793