/*--------------------------------*- C++ -*----------------------------------*\
| =========                 |                                                 |
| \\      /  F ield         | OpenFOAM: The Open Source CFD Toolbox           |
|  \\    /   O peration     | Version:  2.4.0                                 |
|   \\  /    A nd           | Web:      www.OpenFOAM.org                      |
|    \\/     M anipulation  |                                                 |
\*---------------------------------------------------------------------------*/
FoamFile
{
    version     2.0;
    format      ascii;
    class       volVectorField;
    location    "500";
    object      U;
}
// * * * * * * * * * * * * * * * * * * * * * * * * * * * * * * * * * * * * * //

dimensions      [0 1 -1 0 0 0 0];

internalField   nonuniform List<vector> 
2500
(
(2.36942376415e-05 4.53454830613e-07 0)
(2.32212340343e-05 6.54984211359e-08 0)
(2.3253574155e-05 -5.44382590945e-08 0)
(2.3401383543e-05 -6.74453707337e-08 0)
(2.35700997557e-05 -5.69250994426e-08 0)
(2.37208554925e-05 -4.47754894389e-08 0)
(2.38500951721e-05 -3.54392329063e-08 0)
(2.39599386866e-05 -2.88143170437e-08 0)
(2.40538518391e-05 -2.40134316254e-08 0)
(2.41346053415e-05 -2.03513093354e-08 0)
(2.42043234021e-05 -1.74132600941e-08 0)
(2.42646254007e-05 -1.49684069642e-08 0)
(2.4316795032e-05 -1.2886241537e-08 0)
(2.43618808325e-05 -1.10876885443e-08 0)
(2.44007582374e-05 -9.51976107319e-09 0)
(2.44341666959e-05 -8.1434224679e-09 0)
(2.44627338574e-05 -6.92777650652e-09 0)
(2.44869923704e-05 -5.84716474343e-09 0)
(2.45073922715e-05 -4.87957334409e-09 0)
(2.45243104174e-05 -4.00565161067e-09 0)
(2.45380577571e-05 -3.20803691668e-09 0)
(2.45488849153e-05 -2.47085085547e-09 0)
(2.45569863882e-05 -1.77929706211e-09 0)
(2.45625035518e-05 -1.11932500526e-09 0)
(2.45655266179e-05 -4.77334183088e-10 0)
(2.45660956175e-05 1.6009950507e-10 0)
(2.45642004492e-05 8.06486483221e-10 0)
(2.4559779994e-05 1.47569087984e-09 0)
(2.45527202549e-05 2.18221291827e-09 0)
(2.45428514409e-05 2.94150014565e-09 0)
(2.45299438667e-05 3.77030540939e-09 0)
(2.451370248e-05 4.6871108056e-09 0)
(2.44937597486e-05 5.71264994839e-09 0)
(2.44696665369e-05 6.87056975265e-09 0)
(2.44408804422e-05 8.18831393196e-09 0)
(2.44067508099e-05 9.69836797077e-09 0)
(2.43664991967e-05 1.14401879129e-08 0)
(2.43191931796e-05 1.34635318196e-08 0)
(2.42637094995e-05 1.58348962392e-08 0)
(2.41986790113e-05 1.86508615603e-08 0)
(2.4122397429e-05 2.20665342649e-08 0)
(2.40326779889e-05 2.63536407798e-08 0)
(2.39265943612e-05 3.2010262315e-08 0)
(2.38001461041e-05 3.9920378697e-08 0)
(2.36478213444e-05 5.14621900338e-08 0)
(2.34637097521e-05 6.79202116751e-08 0)
(2.32445097782e-05 8.73835227227e-08 0)
(2.30158142712e-05 9.25498323538e-08 0)
(2.28561036478e-05 5.01320117791e-09 0)
(2.31288844881e-05 -3.38987734243e-07 0)
(8.50653168663e-05 1.26054304942e-06 0)
(8.45682601418e-05 2.50462639278e-07 0)
(8.46078710317e-05 -2.18165542047e-07 0)
(8.48785951129e-05 -3.42598283141e-07 0)
(8.5250714417e-05 -3.46923754686e-07 0)
(8.56375157542e-05 -3.15765741528e-07 0)
(8.60053477088e-05 -2.78227690033e-07 0)
(8.63406060413e-05 -2.42883203381e-07 0)
(8.66402779364e-05 -2.11573088695e-07 0)
(8.69053978317e-05 -1.84215227291e-07 0)
(8.7138594885e-05 -1.60315063551e-07 0)
(8.73429101599e-05 -1.39374095611e-07 0)
(8.75213434555e-05 -1.20966455557e-07 0)
(8.76766719382e-05 -1.04735729328e-07 0)
(8.7811393931e-05 -9.03795733499e-08 0)
(8.79277210967e-05 -7.76370772272e-08 0)
(8.80275901708e-05 -6.62797870079e-08 0)
(8.81126810175e-05 -5.61052035519e-08 0)
(8.81844356257e-05 -4.693176402e-08 0)
(8.82440757058e-05 -3.85947530223e-08 0)
(8.8292617958e-05 -3.09428466917e-08 0)
(8.83308866907e-05 -2.38351206011e-08 0)
(8.8359523729e-05 -1.71383992867e-08 0)
(8.83789956544e-05 -1.07248546141e-08 0)
(8.83895984244e-05 -4.46976711803e-09 0)
(8.83914594105e-05 1.75062742951e-09 0)
(8.83845368324e-05 8.06127698444e-09 0)
(8.83686165234e-05 1.45905169399e-08 0)
(8.83433058811e-05 2.14724112742e-08 0)
(8.83080247833e-05 2.88493279212e-08 0)
(8.82619931582e-05 3.6874848205e-08 0)
(8.82042147905e-05 4.5717145091e-08 0)
(8.81334568274e-05 5.55629965822e-08 0)
(8.80482243177e-05 6.66226507638e-08 0)
(8.79467289943e-05 7.91358548432e-08 0)
(8.78268514325e-05 9.33794935773e-08 0)
(8.76860957939e-05 1.09677585064e-07 0)
(8.75215369333e-05 1.28414931461e-07 0)
(8.73297613131e-05 1.5005680918e-07 0)
(8.71068086473e-05 1.75178679433e-07 0)
(8.68481333003e-05 2.04511045543e-07 0)
(8.654864559e-05 2.38997993513e-07 0)
(8.62029595574e-05 2.79830418409e-07 0)
(8.58062674502e-05 3.28260051e-07 0)
(8.5356417698e-05 3.84514404615e-07 0)
(8.4859964132e-05 4.43708066502e-07 0)
(8.43420363811e-05 4.82808951031e-07 0)
(8.38796885465e-05 4.24966998533e-07 0)
(8.36027783376e-05 4.85171261364e-08 0)
(8.38160429077e-05 -8.66952205391e-07 0)
(0.00014503785574 1.89545778445e-06 0)
(0.000144612410965 4.52631888604e-07 0)
(0.00014459146794 -3.78879961533e-07 0)
(0.000144827930698 -6.99885833915e-07 0)
(0.000145224078015 -7.83223175515e-07 0)
(0.000145685006797 -7.64548917112e-07 0)
(0.000146157509325 -7.07005267655e-07 0)
(0.000146611728882 -6.3770445728e-07 0)
(0.00014703363369 -5.67960042182e-07 0)
(0.000147417630062 -5.02197226823e-07 0)
(0.000147762688741 -4.41926618962e-07 0)
(0.000148070042889 -3.87426482037e-07 0)
(0.000148341982632 -3.38462341058e-07 0)
(0.000148581206398 -2.94595511839e-07 0)
(0.000148790482674 -2.55318388768e-07 0)
(0.000148972473379 -2.20114289404e-07 0)
(0.000149129644201 -1.8848333783e-07 0)
(0.000149264221222 -1.59952389825e-07 0)
(0.000149378172394 -1.34077234792e-07 0)
(0.00014947320204 -1.1044102387e-07 0)
(0.000149550751832 -8.86508873617e-08 0)
(0.000149612004491 -6.8333723918e-08 0)
(0.000149657888038 -4.9131645186e-08 0)
(0.000149689079297 -3.06972897557e-08 0)
(0.000149706005851 -1.26890730411e-08 0)
(0.000149708845953 5.23364174591e-09 0)
(0.000149697526037 2.34155053392e-08 0)
(0.000149671715581 4.22103750077e-08 0)
(0.000149630819108 6.19868395906e-08 0)
(0.000149573965183 8.31342148938e-08 0)
(0.000149499992283 1.06069149161e-07 0)
(0.000149407431534 1.31242995766e-07 0)
(0.000149294486479 1.59150103703e-07 0)
(0.000149159010383 1.90337134293e-07 0)
(0.000148998482231 2.2541341469e-07 0)
(0.000148809983839 2.65062067633e-07 0)
(0.000148590182839 3.10051086853e-07 0)
(0.000148335330918 3.61242200099e-07 0)
(0.000148041295558 4.19592246161e-07 0)
(0.000147703661767 4.86134120771e-07 0)
(0.000147317974311 5.61904585054e-07 0)
(0.000146880266327 6.47736017759e-07 0)
(0.000146388132137 7.43697186678e-07 0)
(0.000145842913557 8.4765636837e-07 0)
(0.000145253638449 9.51630856327e-07 0)
(0.000144644801668 1.03308529157e-06 0)
(0.000144065762771 1.03409200528e-06 0)
(0.000143611173943 8.21040253163e-07 0)
(0.000143391612079 1.10395290849e-07 0)
(0.000143562566193 -1.23747647815e-06 0)
(0.000203271425871 2.3868687258e-06 0)
(0.000202922590163 6.66879355489e-07 0)
(0.00020284664091 -4.576561883e-07 0)
(0.000202996773279 -9.93653808592e-07 0)
(0.000203323048955 -1.20026324234e-06 0)
(0.000203750087179 -1.23498127166e-06 0)
(0.000204222972473 -1.18631235349e-06 0)
(0.000204703705888 -1.10026995186e-06 0)
(0.00020516935391 -1.00041613177e-06 0)
(0.000205606996193 -8.98514749124e-07 0)
(0.000206010217975 -8.0027850817e-07 0)
(0.000206376550522 -7.08296071728e-07 0)
(0.000206705854073 -6.23539243099e-07 0)
(0.000206999299662 -5.46138703432e-07 0)
(0.000207258746033 -4.75790416032e-07 0)
(0.000207486358164 -4.11971416504e-07 0)
(0.000207684374549 -3.54055680746e-07 0)
(0.000207854965097 -3.01376251178e-07 0)
(0.0002080001446 -2.53257821433e-07 0)
(0.00020812172026 -2.09032750673e-07 0)
(0.000208221260075 -1.68047632843e-07 0)
(0.000208300073823 -1.29664399677e-07 0)
(0.000208359201436 -9.32582096161e-08 0)
(0.000208399405414 -5.82134051745e-08 0)
(0.000208421165142 -2.39182509803e-08 0)
(0.000208424671703 1.02411482544e-08 0)
(0.000208409822321 4.4887544813e-08 0)
(0.000208376213902 8.06597598213e-08 0)
(0.000208323135489 1.18220365638e-07 0)
(0.000208249559686 1.58263796964e-07 0)
(0.000208154133504 2.01524819703e-07 0)
(0.000208035169492 2.48787173593e-07 0)
(0.000207890638783 3.00891992679e-07 0)
(0.000207718168737 3.58745192573e-07 0)
(0.00020751504969 4.23322246055e-07 0)
(0.000207278258286 4.95667324969e-07 0)
(0.000207004509813 5.7688107143e-07 0)
(0.000206690360441 6.68086021707e-07 0)
(0.000206332394539 7.7034835009e-07 0)
(0.000205927557031 8.84513742207e-07 0)
(0.00020547373017 1.0108717763e-06 0)
(0.000204970723665 1.14847449026e-06 0)
(0.000204421921997 1.29374454646e-06 0)
(0.00020383700048 1.43765143233e-06 0)
(0.000203235900759 1.55994172542e-06 0)
(0.000202654761569 1.61796544578e-06 0)
(0.000202149795886 1.52486838149e-06 0)
(0.00020180206137 1.11813484898e-06 0)
(0.000201676536792 1.19447468417e-07 0)
(0.000201824016445 -1.51645995808e-06 0)
(0.000259411923658 2.75344606386e-06 0)
(0.000259132145943 8.74536017969e-07 0)
(0.000259021103953 -4.63579935921e-07 0)
(0.000259087100176 -1.19612508525e-06 0)
(0.000259317073036 -1.54305213582e-06 0)
(0.000259662194814 -1.66045036929e-06 0)
(0.00026007684214 -1.64911998301e-06 0)
(0.000260523457484 -1.56902734781e-06 0)
(0.000260975333856 -1.45514437617e-06 0)
(0.000261414688692 -1.32741730212e-06 0)
(0.000261830522982 -1.1970426336e-06 0)
(0.000262216571864 -1.07012980863e-06 0)
(0.000262569755734 -9.49836620521e-07 0)
(0.000262889061198 -8.3760103739e-07 0)
(0.00026317476964 -7.33856774433e-07 0)
(0.000263427933126 -6.38451579901e-07 0)
(0.000263650021953 -5.50893865822e-07 0)
(0.000263842688201 -4.70498876927e-07 0)
(0.000264007607154 -3.96475295269e-07 0)
(0.000264146370791 -3.27975995095e-07 0)
(0.00026426041602 -2.64126915975e-07 0)
(0.000264350976082 -2.04042383408e-07 0)
(0.000264419047317 -1.46831916313e-07 0)
(0.000264465366084 -9.16016107515e-08 0)
(0.000264490392301 -3.74520114945e-08 0)
(0.000264494297327 1.65263096522e-08 0)
(0.000264476954727 7.12586738221e-08 0)
(0.000264437933174 1.27693139253e-07 0)
(0.000264376491309 1.86807794695e-07 0)
(0.000264291574983 2.49618004417e-07 0)
(0.000264181817968 3.17182947354e-07 0)
(0.00026404554811 3.90610473317e-07 0)
(0.000263880802136 4.71058698011e-07 0)
(0.000263685354102 5.59731710968e-07 0)
(0.000263456765157 6.57864981469e-07 0)
(0.000263192466403 7.66692920224e-07 0)
(0.000262889892854 8.87385613623e-07 0)
(0.000262546696059 1.02093209562e-06 0)
(0.000262161077196 1.16793020656e-06 0)
(0.000261732303458 1.32821185512e-06 0)
(0.000261261497362 1.50017521821e-06 0)
(0.000260752823516 1.67959406704e-06 0)
(0.000260215200785 1.85748742716e-06 0)
(0.000259664670201 2.0163494878e-06 0)
(0.000259127133632 2.12349259202e-06 0)
(0.000258641117494 2.12004521117e-06 0)
(0.000258256387707 1.90293664154e-06 0)
(0.000258028978605 1.30601025725e-06 0)
(0.000257984036239 8.74452162421e-08 0)
(0.00025811230852 -1.71957489038e-06 0)
(0.000313242831372 3.02029711203e-06 0)
(0.000313025748303 1.06549930192e-06 0)
(0.000312899457722 -4.14624864658e-07 0)
(0.000312900118854 -1.30744113727e-06 0)
(0.000313038140465 -1.78933184235e-06 0)
(0.000313288602065 -2.00219047148e-06 0)
(0.000313619193677 -2.04808298099e-06 0)
(0.000313998234207 -1.99433163661e-06 0)
(0.000314399847414 -1.88418656596e-06 0)
(0.000314804562015 -1.74475726637e-06 0)
(0.000315198688968 -1.5927684443e-06 0)
(0.000315573135122 -1.43833438358e-06 0)
(0.000315922252908 -1.2873969068e-06 0)
(0.00031624286619 -1.14326648906e-06 0)
(0.000316533513416 -1.00759358973e-06 0)
(0.000316793881541 -8.80980120957e-07 0)
(0.000317024392726 -7.63365607873e-07 0)
(0.000317225906282 -6.54271808406e-07 0)
(0.000317399505216 -5.5295796411e-07 0)
(0.000317546343837 -4.58519140763e-07 0)
(0.000317667539079 -3.69947995677e-07 0)
(0.000317764092982 -2.86172806166e-07 0)
(0.000317836837364 -2.06079944757e-07 0)
(0.00031788639436 -1.28526097371e-07 0)
(0.000317913148418 -5.23437047456e-08 0)
(0.000317917226809 2.36580102389e-08 0)
(0.00031789848678 1.00694745503e-07 0)
(0.000317856508449 1.80010237257e-07 0)
(0.000317790593318 2.62879610403e-07 0)
(0.000317699769167 3.50611710239e-07 0)
(0.000317582803011 4.44548844029e-07 0)
(0.000317438225 5.4606175718e-07 0)
(0.000317264367703 6.56536594542e-07 0)
(0.000317059427336 7.77348843397e-07 0)
(0.000316821556481 9.09816372101e-07 0)
(0.000316549001972 1.05511896092e-06 0)
(0.000316240307354 1.21416400125e-06 0)
(0.000315894606955 1.3873652935e-06 0)
(0.000315512048167 1.57428082431e-06 0)
(0.000315094389073 1.77302090373e-06 0)
(0.000314645824904 1.97928139686e-06 0)
(0.000314174092323 2.18476939718e-06 0)
(0.000313691844251 2.37464964931e-06 0)
(0.000313218184149 2.52348302393e-06 0)
(0.000312779807057 2.58886534655e-06 0)
(0.000312410948565 2.50228969832e-06 0)
(0.000312148874234 2.15648702188e-06 0)
(0.000312024902732 1.39708703035e-06 0)
(0.00031203675648 2.67685054481e-08 0)
(0.000312144482169 -1.86577093432e-06 0)
(0.000364629074619 3.20422832207e-06 0)
(0.000364469395891 1.2310992922e-06 0)
(0.000364342926603 -3.32707989245e-07 0)
(0.000364298748055 -1.34541604869e-06 0)
(0.000364360370789 -1.94423026221e-06 0)
(0.000364521190553 -2.25181886997e-06 0)
(0.000364761987106 -2.36442465098e-06 0)
(0.000365059240627 -2.35100275255e-06 0)
(0.000365390869389 -2.2594001448e-06 0)
(0.00036573836027 -2.12190826959e-06 0)
(0.000366087336969 -1.95992652773e-06 0)
(0.000366427235182 -1.78737380387e-06 0)
(0.000366750674918 -1.61310727851e-06 0)
(0.00036705277602 -1.44258090892e-06 0)
(0.000367330540169 -1.27896837922e-06 0)
(0.000367582336422 -1.12391693642e-06 0)
(0.000367807492615 -9.78052081417e-07 0)
(0.000368005979519 -8.41315159607e-07 0)
(0.000368178170844 -7.13189194615e-07 0)
(0.000368324662827 -5.92849827572e-07 0)
(0.000368446139643 -4.7926588594e-07 0)
(0.000368543273595 -3.71265909663e-07 0)
(0.000368616651627 -2.67581583548e-07 0)
(0.000368666721791 -1.66875493254e-07 0)
(0.000368693755092 -6.77583254018e-08 0)
(0.00036869781951 3.12008380937e-08 0)
(0.000368678764212 1.31468391111e-07 0)
(0.000368636212969 2.34541990375e-07 0)
(0.000368569566784 3.41946179557e-07 0)
(0.000368478016701 4.55225629797e-07 0)
(0.00036836056886 5.75933307537e-07 0)
(0.000368216085177 7.05609976159e-07 0)
(0.000368043344606 8.45749950286e-07 0)
(0.000367841132014 9.97745655212e-07 0)
(0.00036760836426 1.16279984171e-06 0)
(0.000367344266321 1.34178857635e-06 0)
(0.000367048614059 1.53504927569e-06 0)
(0.00036672206417 1.74205445009e-06 0)
(0.000366366594613 1.96091110767e-06 0)
(0.00036598607771 2.18759500319e-06 0)
(0.000365586996001 2.41478402305e-06 0)
(0.000365179278401 2.63009638308e-06 0)
(0.000364777149439 2.81346254842e-06 0)
(0.000364399744399 2.93332040719e-06 0)
(0.000364070891468 2.94127276367e-06 0)
(0.000363817221144 2.76540197016e-06 0)
(0.000363662550776 2.30254871408e-06 0)
(0.000363618321404 1.41706578488e-06 0)
(0.000363665799286 -4.67312356226e-08 0)
(0.000363751154911 -1.96450789033e-06 0)
(0.000413484413165 3.31822028698e-06 0)
(0.000413377124024 1.36677680749e-06 0)
(0.000413260492703 -2.34805295981e-07 0)
(0.000413188653584 -1.32909129457e-06 0)
(0.00041319131203 -2.02111003012e-06 0)
(0.000413274687068 -2.41378892268e-06 0)
(0.000413430590454 -2.59388390001e-06 0)
(0.000413643865752 -2.62792095833e-06 0)
(0.000413897619387 -2.56508243805e-06 0)
(0.000414176022507 -2.44063292795e-06 0)
(0.000414465613979 -2.27933505746e-06 0)
(0.000414755649967 -2.09824207743e-06 0)
(0.000415037969353 -1.90886538438e-06 0)
(0.00041530664048 -1.71877886733e-06 0)
(0.000415557546132 -1.53277988012e-06 0)
(0.000415787983579 -1.35371593828e-06 0)
(0.000415996313315 -1.18306829443e-06 0)
(0.000416181666006 -1.02136170079e-06 0)
(0.000416343705716 -8.68451269224e-07 0)
(0.000416482442648 -7.23722861218e-07 0)
(0.000416598087349 -5.86232762397e-07 0)
(0.000416690938696 -4.54804752009e-07 0)
(0.000416761299048 -3.28097321236e-07 0)
(0.000416809411206 -2.04650087631e-07 0)
(0.000416835413086 -8.29159338313e-08 0)
(0.000416839307166 3.87162643822e-08 0)
(0.00041682094284 1.61904511502e-07 0)
(0.00041678001078 2.88338929112e-07 0)
(0.000416716049417 4.1972629929e-07 0)
(0.000416628464596 5.57770662041e-07 0)
(0.000416516564556 7.04146103006e-07 0)
(0.000416379613603 8.60456762439e-07 0)
(0.000416216909193 1.02817731597e-06 0)
(0.000416027888777 1.20856445995e-06 0)
(0.000415812274441 1.4025258829e-06 0)
(0.000415570265143 1.61042725952e-06 0)
(0.000415302787565 1.83180916004e-06 0)
(0.000415011816428 2.06497347029e-06 0)
(0.000414700771619 2.30638179315e-06 0)
(0.000414374989261 2.54978569164e-06 0)
(0.000414042240471 2.78498039209e-06 0)
(0.000413713226432 2.99604591381e-06 0)
(0.000413401893431 3.15891705111e-06 0)
(0.000413125282005 3.23816406792e-06 0)
(0.000412902403965 3.1829324849e-06 0)
(0.000412751449918 2.92257735625e-06 0)
(0.000412684363456 2.36270723846e-06 0)
(0.000412698223353 1.3880056341e-06 0)
(0.000412765644123 -1.22238306785e-07 0)
(0.000412827953591 -2.02308399141e-06 0)
(0.000459751152851 3.37226709258e-06 0)
(0.000459691436204 1.47060477581e-06 0)
(0.000459590676748 -1.33208696026e-07 0)
(0.000459504142488 -1.27536642604e-06 0)
(0.000459463500258 -2.03564161928e-06 0)
(0.000459483375424 -2.4988918237e-06 0)
(0.000459564098243 -2.74108346671e-06 0)
(0.000459697993364 -2.82386334689e-06 0)
(0.000459873638522 -2.79529457595e-06 0)
(0.000460078762091 -2.6916360022e-06 0)
(0.000460301879831 -2.53961187038e-06 0)
(0.000460533081524 -2.35851391181e-06 0)
(0.000460764281319 -2.16199364055e-06 0)
(0.000460989165872 -1.95949321706e-06 0)
(0.000461202993553 -1.75734957656e-06 0)
(0.000461402337303 -1.55962602415e-06 0)
(0.000461584822793 -1.36872928471e-06 0)
(0.000461748887737 -1.18586276884e-06 0)
(0.000461893573052 -1.01135737429e-06 0)
(0.000462018348254 -8.44911852778e-07 0)
(0.000462122969308 -6.85766951334e-07 0)
(0.000462207365416 -5.3283135749e-07 0)
(0.000462271550797 -3.84772807348e-07 0)
(0.0004623155578 -2.40084290843e-07 0)
(0.000462339388288 -9.71328518111e-08 0)
(0.000462342980984 4.58031960694e-08 0)
(0.000462326193283 1.90503899152e-07 0)
(0.000462288796842 3.38779990279e-07 0)
(0.000462230487125 4.92443932165e-07 0)
(0.000462150907918 6.53275463577e-07 0)
(0.00046204969277 8.22976738809e-07 0)
(0.000461926526237 1.00311095551e-06 0)
(0.000461781228799 1.19501647863e-06 0)
(0.000461613870224 1.39968573101e-06 0)
(0.000461424916823 1.61759420944e-06 0)
(0.000461215418159 1.8484595795e-06 0)
(0.000460987237587 2.09090346923e-06 0)
(0.000460743327499 2.34197904698e-06 0)
(0.00046048804225 2.59651564957e-06 0)
(0.000460227466526 2.84621864507e-06 0)
(0.000459969709802 3.07845065564e-06 0)
(0.000459725072488 3.27461776544e-06 0)
(0.00045950592092 3.40809853293e-06 0)
(0.000459326009032 3.44173369665e-06 0)
(0.00045919888768 3.32500312881e-06 0)
(0.000459134879993 2.99152647105e-06 0)
(0.000459136478639 2.35764993393e-06 0)
(0.000459191112106 1.32721824421e-06 0)
(0.000459267745738 -1.92631441818e-07 0)
(0.000459307394334 -2.04699301203e-06 0)
(0.000503389225601 3.37441372157e-06 0)
(0.000503372515318 1.54256796451e-06 0)
(0.000503290855043 -3.60569335664e-08 0)
(0.000503198846509 -1.19753430877e-06 0)
(0.000503127700612 -2.0022768711e-06 0)
(0.000503097224761 -2.51955710604e-06 0)
(0.000503113947872 -2.81465415553e-06 0)
(0.000503176382379 -2.94313022677e-06 0)
(0.000503278211586 -2.95030172366e-06 0)
(0.000503410964442 -2.87186656125e-06 0)
(0.000503565701506 -2.73524398449e-06 0)
(0.000503734026627 -2.56103295466e-06 0)
(0.000503908593383 -2.36439453159e-06 0)
(0.000504083289005 -2.15624609071e-06 0)
(0.000504253224131 -1.94424423925e-06 0)
(0.000504414618752 -1.73356700971e-06 0)
(0.000504564641886 -1.52752293277e-06 0)
(0.000504701239644 -1.3280181728e-06 0)
(0.000504822970956 -1.13591112334e-06 0)
(0.000504928860545 -9.51279677865e-07 0)
(0.000505018272924 -7.73621786302e-07 0)
(0.000505090807977 -6.02005659778e-07 0)
(0.000505146217092 -4.35182452923e-07 0)
(0.000505184338157 -2.7167144564e-07 0)
(0.000505205047719 -1.09825644541e-07 0)
(0.000505208228855 5.21157763485e-08 0)
(0.00050519375378 2.15982788035e-07 0)
(0.000505161480815 3.83632693263e-07 0)
(0.00050511126589 5.56906459357e-07 0)
(0.000505042989506 7.37578206051e-07 0)
(0.000504956600611 9.27292152198e-07 0)
(0.00050485217954 1.12748015447e-06 0)
(0.000504730022569 1.3392511823e-06 0)
(0.000504590750856 1.56324159514e-06 0)
(0.000504435446195 1.79941173506e-06 0)
(0.000504265814707 2.04677000736e-06 0)
(0.000504084376668 2.3030002558e-06 0)
(0.000503894674968 2.56396205997e-06 0)
(0.000503701484779 2.8230273152e-06 0)
(0.000503510990556 3.07021198495e-06 0)
(0.000503330871255 3.29106250775e-06 0)
(0.000503170197011 3.4652702881e-06 0)
(0.000503038994568 3.5650210637e-06 0)
(0.000502947271139 3.55317567368e-06 0)
(0.000502903284683 3.38148533975e-06 0)
(0.000502910680411 2.98944256662e-06 0)
(0.000502964909985 2.30442032581e-06 0)
(0.000503047308861 1.24709253253e-06 0)
(0.000503126168686 -2.53836532118e-07 0)
(0.00050314425611 -2.04078742277e-06 0)
(0.000544369814913 3.33127021696e-06 0)
(0.000544391853396 1.58377823121e-06 0)
(0.000544330655337 5.1544636475e-08 0)
(0.000544239455637 -1.10554547883e-06 0)
(0.000544147742217 -1.93323562421e-06 0)
(0.000544078285077 -2.48779512521e-06 0)
(0.000544041915565 -2.82464343658e-06 0)
(0.000544042007373 -2.99289707048e-06 0)
(0.000544076677566 -3.03418706296e-06 0)
(0.000544141101395 -2.98254819721e-06 0)
(0.000544229076204 -2.86506777346e-06 0)
(0.000544334099748 -2.70280533848e-06 0)
(0.000544450016487 -2.5117894367e-06 0)
(0.000544571362764 -2.30395785379e-06 0)
(0.000544693506206 -2.08798565774e-06 0)
(0.000544812657131 -1.86998188188e-06 0)
(0.000544925806482 -1.65405856125e-06 0)
(0.000545030627296 -1.44278593957e-06 0)
(0.000545125363284 -1.23755137314e-06 0)
(0.000545208718666 -1.03883946731e-06 0)
(0.000545279757223 -8.46449326233e-07 0)
(0.000545337814482 -6.59662558172e-07 0)
(0.000545382424639 -4.77373432538e-07 0)
(0.000545413262488 -2.98190605794e-07 0)
(0.00054543010003 -1.20518225864e-07 0)
(0.000545432777283 5.73769743991e-08 0)
(0.000545421186906 2.3730681377e-07 0)
(0.000545395272544 4.21105692549e-07 0)
(0.000545355041135 6.10572271457e-07 0)
(0.000545300589813 8.07403303037e-07 0)
(0.000545232148358 1.01311345848e-06 0)
(0.000545150138361 1.22893395246e-06 0)
(0.00054505525023 1.4556812419e-06 0)
(0.000544948538742 1.69358505667e-06 0)
(0.000544831536656 1.9420624831e-06 0)
(0.000544706383671 2.19942181322e-06 0)
(0.000544575964023 2.46247664021e-06 0)
(0.00054444403949 2.72604776887e-06 0)
(0.000544315354473 2.98232900294e-06 0)
(0.000544195674832 3.22009493573e-06 0)
(0.000544091701928 3.42373762345e-06 0)
(0.000544010775663 3.57214125632e-06 0)
(0.00054396025584 3.63744320075e-06 0)
(0.000543946428174 3.58381167413e-06 0)
(0.000543972844367 3.36645523559e-06 0)
(0.000544037805888 2.93137036774e-06 0)
(0.000544131769997 2.21632808408e-06 0)
(0.00054423248239 1.15622323637e-06 0)
(0.000544309203336 -3.03763633886e-07 0)
(0.000544307223631 -2.00829335416e-06 0)
(0.000582671593392 3.2483862657e-06 0)
(0.000582728451016 1.59599071385e-06 0)
(0.000582687880166 1.26642757314e-07 0)
(0.00058260159292 -1.00656822924e-06 0)
(0.000582496782115 -1.83832286535e-06 0)
(0.000582397716871 -2.41424064553e-06 0)
(0.000582318084481 -2.78100738545e-06 0)
(0.000582264938322 -2.981447934e-06 0)
(0.000582240068357 -3.05307807359e-06 0)
(0.000582241928159 -3.02756528044e-06 0)
(0.000582266992106 -2.93090030426e-06 0)
(0.00058231079703 -2.78389991521e-06 0)
(0.000582368638428 -2.60287348445e-06 0)
(0.000582436009213 -2.40032295596e-06 0)
(0.000582508843903 -2.18560719234e-06 0)
(0.000582583629193 -1.96553451176e-06 0)
(0.000582657427319 -1.7448707088e-06 0)
(0.000582727846935 -1.52676283919e-06 0)
(0.000582792985772 -1.31308601849e-06 0)
(0.000582851361326 -1.1047234233e-06 0)
(0.000582901840012 -9.01790385717e-07 0)
(0.000582943571105 -7.03812985208e-07 0)
(0.000582975929113 -5.09870550706e-07 0)
(0.000582998466505 -3.18710360854e-07 0)
(0.000583010877725 -1.28841808692e-07 0)
(0.000583012974903 6.13835430218e-08 0)
(0.00058300467545 2.53700179674e-07 0)
(0.000582986001717 4.49859605745e-07 0)
(0.00058295709299 6.51558592417e-07 0)
(0.000582918230141 8.60358984425e-07 0)
(0.000582869873325 1.07759279731e-06 0)
(0.000582812712938 1.30424548818e-06 0)
(0.00058274773359 1.54080912122e-06 0)
(0.000582676289949 1.78709570628e-06 0)
(0.000582600191583 2.04199934838e-06 0)
(0.00058252179122 2.30319419314e-06 0)
(0.000582444066486 2.56675388426e-06 0)
(0.000582370678869 2.82667803345e-06 0)
(0.000582305984652 3.07431323532e-06 0)
(0.000582254960516 3.29766236028e-06 0)
(0.000582222992172 3.48058874757e-06 0)
(0.000582215456485 3.60194631711e-06 0)
(0.000582237020027 3.63470364608e-06 0)
(0.000582290549753 3.5451964793e-06 0)
(0.00058237563451 3.2927019835e-06 0)
(0.000582486471334 2.82973280703e-06 0)
(0.000582610122001 2.10341136836e-06 0)
(0.000582722420917 1.06039669065e-06 0)
(0.000582794411465 -3.41609294963e-07 0)
(0.00058277403583 -1.95279159169e-06 0)
(0.000618278385869 3.13050385656e-06 0)
(0.00061836645177 1.5812857383e-06 0)
(0.000618345921693 1.8775319497e-07 0)
(0.000618267079498 -9.05618223442e-07 0)
(0.000618154653691 -1.72517000455e-06 0)
(0.000618033483854 -2.30788186511e-06 0)
(0.000617919059316 -2.69288677968e-06 0)
(0.000617821138184 -2.91715093013e-06 0)
(0.000617744453668 -3.01398863899e-06 0)
(0.00061769028237 -3.01230887077e-06 0)
(0.000617657567518 -2.93648087631e-06 0)
(0.000617643865672 -2.80653446408e-06 0)
(0.000617646031003 -2.63856285121e-06 0)
(0.000617660693797 -2.4452134133e-06 0)
(0.000617684568529 -2.23619666337e-06 0)
(0.000617714635517 -2.01877008028e-06 0)
(0.000617748232368 -1.79817443049e-06 0)
(0.000617783084967 -1.57801352643e-06 0)
(0.000617817300414 -1.36057670353e-06 0)
(0.000617849338251 -1.14710795788e-06 0)
(0.000617877971365 -9.38028008235e-07 0)
(0.000617902244225 -7.33116411622e-07 0)
(0.000617921433471 -5.31660932502e-07 0)
(0.000617935013972 -3.32581029996e-07 0)
(0.000617942632288 -1.34531863127e-07 0)
(0.00061794408867 6.40052346692e-08 0)
(0.00061793932828 2.64640202345e-07 0)
(0.000617928442053 4.68994186837e-07 0)
(0.000617911677425 6.78616519196e-07 0)
(0.000617889459013 8.94893081112e-07 0)
(0.000617862419066 1.1189399832e-06 0)
(0.000617831437071 1.35147587005e-06 0)
(0.00061779768713 1.59266540016e-06 0)
(0.000617762690517 1.84192559664e-06 0)
(0.00061772836885 2.09768598556e-06 0)
(0.000617697090503 2.35709297943e-06 0)
(0.000617671698768 2.61564926413e-06 0)
(0.000617655504739 2.86678071292e-06 0)
(0.000617652220745 3.10132757946e-06 0)
(0.000617665801394 3.30696499905e-06 0)
(0.000617700150571 3.46757180233e-06 0)
(0.000617758642647 3.56258942723e-06 0)
(0.00061784341055 3.56644355132e-06 0)
(0.000617954334026 3.44815069852e-06 0)
(0.000618087787043 3.17126784118e-06 0)
(0.000618234910216 2.69448429867e-06 0)
(0.000618380555093 1.97310508454e-06 0)
(0.000618499725915 9.63417721555e-07 0)
(0.000618565571772 -3.67359470873e-07 0)
(0.000618528515182 -1.8771229471e-06 0)
(0.000651177675311 2.98174252863e-06 0)
(0.00065129363109 1.54188204503e-06 0)
(0.000651292094026 2.34382594328e-07 0)
(0.000651222113227 -8.06092748651e-07 0)
(0.000651106006704 -1.59958704083e-06 0)
(0.000650968619994 -2.17609605138e-06 0)
(0.000650826503026 -2.56830995247e-06 0)
(0.000650691352074 -2.80789296859e-06 0)
(0.000650570201463 -2.92408476692e-06 0)
(0.000650466685994 -2.94287170653e-06 0)
(0.0006503819366 -2.8866739046e-06 0)
(0.000650315406133 -2.77433960471e-06 0)
(0.000650265503982 -2.62134926761e-06 0)
(0.000650230075718 -2.4401351748e-06 0)
(0.000650206741838 -2.24045338904e-06 0)
(0.000650193124829 -2.02976417252e-06 0)
(0.000650186990586 -1.8135941978e-06 0)
(0.000650186327747 -1.59586591591e-06 0)
(0.000650189384127 -1.37918784493e-06 0)
(0.000650194675155 -1.1651049049e-06 0)
(0.000650200975514 -9.54311178602e-07 0)
(0.000650207302032 -7.46829259964e-07 0)
(0.000650212893513 -5.42161214686e-07 0)
(0.000650217191363 -3.39416492003e-07 0)
(0.000650219823623 -1.37422149423e-07 0)
(0.000650220594059 6.5179343792e-08 0)
(0.000650219477362 2.698395602e-07 0)
(0.00065021662104 4.78015698438e-07 0)
(0.000650212354202 6.91079119694e-07 0)
(0.000650207203063 9.10215477549e-07 0)
(0.000650201912563 1.13631081003e-06 0)
(0.000650197472796 1.36981758379e-06 0)
(0.000650195148069 1.61059430608e-06 0)
(0.000650196504985 1.8577119941e-06 0)
(0.000650203434047 2.10922075321e-06 0)
(0.000650218156607 2.36187018595e-06 0)
(0.000650243205479 2.61077878292e-06 0)
(0.000650281363087 2.84905042819e-06 0)
(0.000650335535927 3.06734147418e-06 0)
(0.000650408538374 3.25339061053e-06 0)
(0.000650502754803 3.39153690818e-06 0)
(0.000650619644374 3.46227067529e-06 0)
(0.000650759064758 3.44188530287e-06 0)
(0.000650918374027 3.30233299135e-06 0)
(0.000651091407382 3.0114055073e-06 0)
(0.000651267086614 2.53345843934e-06 0)
(0.000651428899011 1.83084729542e-06 0)
(0.00065155168666 8.67711017636e-07 0)
(0.000651610746981 -3.81474165426e-07 0)
(0.000651558693547 -1.7837718083e-06 0)
(0.000681359614872 2.80573626582e-06 0)
(0.000681500400848 1.48002944663e-06 0)
(0.000681516532638 2.66699025023e-07 0)
(0.000681456041574 -7.10193608016e-07 0)
(0.000681339004725 -1.46591840956e-06 0)
(0.000681189950483 -2.02482265067e-06 0)
(0.000681025983876 -2.41413791094e-06 0)
(0.000680860156631 -2.66081198447e-06 0)
(0.000680701267903 -2.79025501268e-06 0)
(0.000680554878833 -2.82552017873e-06 0)
(0.000680424004071 -2.78690171188e-06 0)
(0.000680309811523 -2.69179921601e-06 0)
(0.000680212187909 -2.55478009746e-06 0)
(0.000680130194541 -2.38776638403e-06 0)
(0.000680062412105 -2.20029249002e-06 0)
(0.000680007191984 -1.99979349309e-06 0)
(0.000679962831031 -1.7918966861e-06 0)
(0.000679927687231 -1.58069919038e-06 0)
(0.000679900251454 -1.36902205705e-06 0)
(0.00067987918807 -1.15863664075e-06 0)
(0.000679863354496 -9.50462638809e-07 0)
(0.000679851807439 -7.4473949361e-07 0)
(0.000679843801607 -5.41174237593e-07 0)