/*--------------------------------*- C++ -*----------------------------------*\
| =========                 |                                                 |
| \\      /  F ield         | OpenFOAM: The Open Source CFD Toolbox           |
|  \\    /   O peration     | Version:  2.4.0                                 |
|   \\  /    A nd           | Web:      www.OpenFOAM.org                      |
|    \\/     M anipulation  |                                                 |
\*---------------------------------------------------------------------------*/
FoamFile
{
    version     2.0;
    format      ascii;
    class       volVectorField;
    location    "500";
    object      U;
}
// * * * * * * * * * * * * * * * * * * * * * * * * * * * * * * * * * * * * * //

dimensions      [0 1 -1 0 0 0 0];

internalField   nonuniform List<vector> 
2500
(
(-0.112385521505 -0.0138005228081 0)
(-0.0855495832014 -0.00940360104436 0)
(-0.0703107606265 -0.00481233419713 0)
(-0.0615798964779 -0.00270613750028 0)
(-0.0560414557802 -0.00161128584972 0)
(-0.052351972531 -0.00105442909343 0)
(-0.0497104933318 -0.000731519659157 0)
(-0.0477494214654 -0.000533707833042 0)
(-0.0462449675544 -0.000401107509473 0)
(-0.0450696657338 -0.000307732246864 0)
(-0.0441396341129 -0.000238556025152 0)
(-0.0433992691945 -0.00018562804726 0)
(-0.0428090997086 -0.000143949224727 0)
(-0.0423405173172 -0.000110424949924 0)
(-0.0419720677671 -8.29534443274e-05 0)
(-0.0416873828005 -6.00893125632e-05 0)
(-0.0414737508777 -4.07874930357e-05 0)
(-0.0413211978169 -2.42773497949e-05 0)
(-0.0412218378062 -9.97289667009e-06 0)
(-0.0411694211226 2.58040183764e-06 0)
(-0.0411590056001 1.37431814994e-05 0)
(-0.0411867173725 2.38071179882e-05 0)
(-0.0412495737541 3.30129184885e-05 0)
(-0.0413453523386 4.15632073137e-05 0)
(-0.0414724947854 4.96321849353e-05 0)
(-0.0416300378546 5.73729769884e-05 0)
(-0.0418175665407 6.49234158877e-05 0)
(-0.0420351860021 7.24106961769e-05 0)
(-0.042283510274 7.99552261577e-05 0)
(-0.0425636668062 8.7673851756e-05 0)
(-0.042877316783 9.56825346725e-05 0)
(-0.043226691911 0.000104098334737 0)
(-0.0436146492196 0.000113040369056 0)
(-0.044044745598 0.00012262855806 0)
(-0.0445213348142 0.000132978539937 0)
(-0.0450496875604 0.000144187738422 0)
(-0.0456361382719 0.000156307932405 0)
(-0.046288253214 0.000169288319849 0)
(-0.0470150407684 0.000182889080895 0)
(-0.0478272154876 0.000196538253074 0)
(-0.0487377199595 0.000209246480732 0)
(-0.0497628748857 0.000219675931158 0)
(-0.0509254969372 0.000227319214255 0)
(-0.0522632425246 0.00023592938424 0)
(-0.053846925593 0.000264130067438 0)
(-0.0558319030969 0.00036830312103 0)
(-0.0585210177795 0.000691407742859 0)
(-0.0626372235898 0.00153570304552 0)
(-0.0690703498203 0.00357142970823 0)
(-0.0807034055739 0.00816776084056 0)
(-0.256880129552 -0.0429325430345 0)
(-0.226631085165 -0.0309197582988 0)
(-0.205649790383 -0.0182758892506 0)
(-0.19067031947 -0.0119228868722 0)
(-0.179642420112 -0.00802730202495 0)
(-0.171438033326 -0.00572995439777 0)
(-0.165168956932 -0.00421900427902 0)
(-0.160308998556 -0.00319097891628 0)
(-0.15648602089 -0.00244759256753 0)
(-0.153454254935 -0.00189196542745 0)
(-0.151038774113 -0.0014619167498 0)
(-0.149114903931 -0.00112095199051 0)
(-0.147590344282 -0.000844581143232 0)
(-0.146395738865 -0.000616567037241 0)
(-0.145477836327 -0.000425389863214 0)
(-0.144795236933 -0.00026276330339 0)
(-0.144315386824 -0.000122491562445 0)
(-0.144012532527 1.51538816648e-07 0)
(-0.143866249244 0.000108868906532 0)
(-0.143860384293 0.00020662240823 0)
(-0.143982279148 0.000295835524612 0)
(-0.144222195039 0.000378534376969 0)
(-0.144572886212 0.000456452442252 0)
(-0.145029285683 0.000531109139772 0)
(-0.145588278629 0.000603871619603 0)
(-0.146248547081 0.000676004995064 0)
(-0.147010475089 0.000748715250332 0)
(-0.147876107889 0.000823187784063 0)
(-0.148849162104 0.000900624099694 0)
(-0.149935087085 0.0009822787972 0)
(-0.151141180748 0.00106949905936 0)
(-0.152476766625 0.00116376881354 0)
(-0.153953443762 0.00126676040999 0)
(-0.155585426355 0.00138039641836 0)
(-0.157390001413 0.00150692672247 0)
(-0.159388142554 0.00164902385129 0)
(-0.161605353396 0.00180991256403 0)
(-0.164072830563 0.00199354036728 0)
(-0.166829161534 0.00220487212443 0)
(-0.169922767172 0.00245036229084 0)
(-0.173415724272 0.00273908648016 0)
(-0.17738930613 0.00308488053395 0)
(-0.18195259072 0.00351196905827 0)
(-0.187253851122 0.0040653219453 0)
(-0.193491929715 0.00483626328477 0)
(-0.200929150643 0.00600106296835 0)
(-0.209833226268 0.00790957000643 0)
(-0.220500048101 0.0111451457929 0)
(-0.232553543983 0.0167273659963 0)
(-0.246113733549 0.0250265233799 0)
(-0.324278219385 -0.0622387500259 0)
(-0.307514736744 -0.0476617888226 0)
(-0.293048114839 -0.0313359594269 0)
(-0.2806455374 -0.0222944585947 0)
(-0.270499761895 -0.0159768362748 0)
(-0.262361537056 -0.0118883792136 0)
(-0.255837130283 -0.00898673032719 0)
(-0.250609743583 -0.00690012145631 0)
(-0.246411670499 -0.00532761178924 0)
(-0.243043042851 -0.0041146516233 0)
(-0.240349114172 -0.00315254493337 0)
(-0.238212065959 -0.00237431802344 0)
(-0.236540303513 -0.0017328270293 0)
(-0.235262267664 -0.00119569539226 0)
(-0.234321371532 -0.000739247972095 0)
(-0.233672610625 -0.000346011393148 0)
(-0.233280010455 -2.62436482621e-06 0)
(-0.233114796661 0.000301315604042 0)
(-0.23315402247 0.000574113027944 0)
(-0.233379547168 0.000822530580985 0)
(-0.233777262078 0.0010521983894 0)
(-0.234336505201 0.00126790520372 0)
(-0.235049618285 0.00147381950959 0)
(-0.235911616181 0.00167365945274 0)
(-0.236919946385 0.00187082982273 0)
(-0.238074323824 0.00206853650599 0)
(-0.239376630567 0.00226988711018 0)
(-0.240830873969 0.00247798410076 0)
(-0.242443199794 0.00269601608413 0)
(-0.2442219594 0.00292735240055 0)
(-0.24617783276 0.0031756465882 0)
(-0.248324011186 0.00344495485792 0)
(-0.250676447456 0.00373987785871 0)
(-0.253254182347 0.00406573543663 0)
(-0.256079765986 0.00442879138776 0)
(-0.259179787133 0.00483654654674 0)
(-0.262585557152 0.00529814725063 0)
(-0.266333944815 0.00582494917926 0)
(-0.270468496212 0.00643140340034 0)
(-0.275040647701 0.00713634909006 0)
(-0.280111425007 0.00796537302375 0)
(-0.28575218206 0.00895422269928 0)
(-0.292045413992 0.0101558609341 0)
(-0.299077649694 0.0116487656877 0)
(-0.306926594468 0.0135564936206 0)
(-0.315609408647 0.0160539956167 0)
(-0.324994890511 0.0194093847835 0)
(-0.334604409347 0.0238745053116 0)
(-0.343353768258 0.0298057806476 0)
(-0.349599374632 0.0365469678777 0)
(-0.362298278872 -0.069226238982 0)
(-0.357568645745 -0.0553748001592 0)
(-0.350892454238 -0.0390715515092 0)
(-0.343527524893 -0.0293102985599 0)
(-0.336629800076 -0.0218222384093 0)
(-0.330561319653 -0.0166712018237 0)
(-0.325407121875 -0.0128050161742 0)
(-0.321115874104 -0.00991175085932 0)
(-0.317589073274 -0.00765809308359 0)
(-0.314725390281 -0.00587476934816 0)
(-0.312431488582 -0.00443008461958 0)
(-0.310627542844 -0.00324095726418 0)
(-0.309246440147 -0.00224593746484 0)
(-0.308232622598 -0.0014017024402 0)
(-0.307540265221 -0.000675594986076 0)
(-0.30713173862 -4.29658315433e-05 0)
(-0.306976239191 0.000515447478761 0)
(-0.307048686358 0.00101491942026 0)
(-0.307328821122 0.0014678520275 0)
(-0.307800485953 0.00188449780178 0)
(-0.308451046804 0.00227350996142 0)
(-0.309270932216 0.00264233928787 0)
(-0.310253266162 0.0029975420413 0)
(-0.311393577479 0.00334501998519 0)
(-0.312689571755 0.00369021655716 0)
(-0.314140954634 0.00403828209116 0)
(-0.315749297469 0.00439421944947 0)
(-0.3175179376 0.00476301808483 0)
(-0.31945190642 0.00514978360094 0)
(-0.321557878367 0.00555986896279 0)
(-0.323844133911 0.00599901364981 0)
(-0.326320527445 0.00647349714686 0)
(-0.328998450682 0.00699031502815 0)
(-0.331890773917 0.00755738611942 0)
(-0.335011751974 0.00818380626074 0)
(-0.338376848692 0.00888016093208 0)
(-0.342002472659 0.0096589377073 0)
(-0.345905464533 0.0105350504308 0)
(-0.35010241236 0.0115266143627 0)
(-0.354608104144 0.0126559172884 0)
(-0.359433751317 0.0139511206306 0)
(-0.364581658407 0.0154480101023 0)
(-0.370040416152 0.0171939846946 0)
(-0.375764251578 0.0192491162007 0)
(-0.3816624315 0.0216945738596 0)
(-0.387517103024 0.0246147552781 0)
(-0.392999402471 0.0281148298703 0)
(-0.397338496829 0.0321677685994 0)
(-0.399856223608 0.0367438655613 0)
(-0.398480535057 0.0409944326267 0)
(-0.38862820303 -0.0686829047063 0)
(-0.391917571353 -0.0569596903782 0)
(-0.391273037136 -0.0423678023081 0)
(-0.388515100856 -0.0329895753317 0)
(-0.384963748736 -0.025267893994 0)
(-0.381307261823 -0.0196752197813 0)
(-0.377917198528 -0.0152758656308 0)
(-0.374935046806 -0.0118684724254 0)
(-0.37240155047 -0.00913651991009 0)
(-0.370305959646 -0.00692583619952 0)
(-0.368617043525 -0.00510139412032 0)
(-0.367296791929 -0.0035766951438 0)
(-0.366307198014 -0.00228423578225 0)
(-0.365613114803 -0.00117528524151 0)
(-0.365183336518 -0.000211959567959 0)
(-0.364990798739 0.000634934810561 0)
(-0.365012395967 0.00138868185357 0)
(-0.365228639625 0.00206804172255 0)
(-0.365623272684 0.00268846160547 0)
(-0.366182890591 0.00326285390461 0)
(-0.366896591273 0.00380221232795 0)
(-0.367755660656 0.0043160594421 0)
(-0.36875329356 0.00481280026444 0)
(-0.369884346004 0.00529999907186 0)
(-0.3711451134 0.00578460589885 0)
(-0.372533128157 0.00627314524538 0)
(-0.374046969657 0.00677187884181 0)
(-0.37568607885 0.00728695012972 0)
(-0.377450568989 0.00782451695026 0)
(-0.379341022484 0.00839087736905 0)
(-0.3813582628 0.00899259309101 0)
(-0.383503086372 0.00963661404647 0)
(-0.385775939808 0.0103304085351 0)
(-0.388176515168 0.0110821016139 0)
(-0.390703248307 0.0119006297038 0)
(-0.393352654688 0.0127959112813 0)
(-0.396118519018 0.0137790591648 0)
(-0.398990712915 0.0148626151481 0)
(-0.401953879402 0.0160609092931 0)
(-0.404984981393 0.0173903946914 0)
(-0.408051273762 0.01887039374 0)
(-0.411103723742 0.0205232850851 0)
(-0.414075179292 0.0223761128961 0)
(-0.416857435326 0.0244578171423 0)
(-0.419312708513 0.0268022596207 0)
(-0.421178616094 0.0294243945064 0)
(-0.422205894492 0.0323291604924 0)
(-0.421699694364 0.0353776166512 0)
(-0.419618006204 0.0383892081423 0)
(-0.413911326354 0.0406849538486 0)
(-0.407644387756 -0.0642088028388 0)
(-0.415755587824 -0.0549458548121 0)
(-0.41925554109 -0.0425860585668 0)
(-0.420007822985 -0.0340899144545 0)
(-0.419201129146 -0.0266849657954 0)
(-0.417664814606 -0.0210675755801 0)
(-0.415894992019 -0.0164729459494 0)
(-0.414149680087 -0.0128062446127 0)
(-0.412562145606 -0.0097929576514 0)
(-0.411189483567 -0.00730733827002 0)
(-0.410050420124 -0.00522349409141 0)
(-0.409142832615 -0.00345986584034 0)
(-0.408454910361 -0.00194914592043 0)
(-0.407970609492 -0.000641653198018 0)
(-0.407672804982 0.000502424818129 0)
(-0.407544810109 0.00151435839951 0)
(-0.407571148094 0.00241955401944 0)
(-0.407737847805 0.00323875590858 0)
(-0.40803250863 0.00398923024289 0)
(-0.40844423001 0.00468551254538 0)
(-0.40896347646 0.00534002700801 0)
(-0.409581909043 0.00596353767461 0)
(-0.410292202962 0.0065655110485 0)
(-0.411087859266 0.00715439975394 0)
(-0.411963014106 0.00773787377573 0)
(-0.412912245068 0.00832300969752 0)
(-0.413930372249 0.00891644915139 0)
(-0.415012250023 0.00952453305501 0)
(-0.416152544601 0.0101534172167 0)
(-0.417345491007 0.010809173091 0)
(-0.418584623255 0.0114978768547 0)
(-0.419862468122 0.0122256888459 0)
(-0.421170197174 0.0129989259991 0)
(-0.422497218161 0.0138241278743 0)
(-0.42383071227 0.0147081218202 0)
(-0.425155057883 0.0156580840138 0)
(-0.42645121685 0.0166816170759 0)
(-0.427695822379 0.0177868183407 0)
(-0.428860422538 0.0189824237264 0)
(-0.429909583995 0.0202778619171 0)
(-0.430800381762 0.0216835768257 0)
(-0.431476612461 0.0232106589887 0)
(-0.431871831044 0.0248714045813 0)
(-0.431886166959 0.0266756622105 0)
(-0.431416738452 0.0286310860811 0)
(-0.430251333146 0.0307217719749 0)
(-0.428283283933 0.0329088250328 0)
(-0.424970948618 0.0350388514991 0)
(-0.420681393789 0.0368928869419 0)
(-0.413588566955 0.0380573001716 0)
(-0.420613768283 -0.0580701593026 0)
(-0.431165376428 -0.0511055983201 0)
(-0.437212811455 -0.0409672930886 0)
(-0.440372485414 -0.033523773281 0)
(-0.441594636624 -0.0267064191 0)
(-0.441712856596 -0.0213090270503 0)
(-0.441243579594 -0.016746960008 0)
(-0.440502637736 -0.0130093079404 0)
(-0.439675502824 -0.00987314143189 0)
(-0.438864904672 -0.00724376362947 0)
(-0.438125723615 -0.00501079422738 0)
(-0.437483849783 -0.00310187494184 0)
(-0.436948907258 -0.00145377620168 0)
(-0.436521163364 -1.87777888147e-05 0)
(-0.436195906795 0.00124250685911 0)
(-0.435965868061 0.00236157381599 0)
(-0.435822676565 0.00336444885925 0)
(-0.435757650136 0.00427262544122 0)
(-0.435762226282 0.00510414770762 0)
(-0.435828159745 0.0058742772113 0)
(-0.435947587887 0.0065960761038 0)
(-0.436113012862 0.00728083334982 0)
(-0.436317235241 0.00793841465729 0)
(-0.436553257285 0.00857753708724 0)
(-0.436814167481 0.00920599365959 0)
(-0.437093012272 0.0098308358055 0)
(-0.437382658188 0.0104585240663 0)
(-0.437675645434 0.0110950527735 0)
(-0.43796403315 0.0117460539567 0)
(-0.43823923521 0.0124168840818 0)
(-0.438491846475 0.0131126968486 0)
(-0.438711455884 0.0138385043732 0)
(-0.438886449646 0.014599229803 0)
(-0.439003790942 0.0153997527252 0)
(-0.439048797282 0.0162449531624 0)
(-0.439004851556 0.01713975193 0)
(-0.438853159954 0.0180891646156 0)
(-0.438572239606 0.0190983441569 0)
(-0.438137736753 0.0201726723383 0)
(-0.43752098861 0.021317745981 0)
(-0.436689552368 0.0225394904428 0)
(-0.435601685574 0.0238435950969 0)
(-0.434212193296 0.0252352767303 0)
(-0.432448461211 0.0267156295456 0)
(-0.430250956975 0.0282793218955 0)
(-0.427462060027 0.0298984920208 0)
(-0.424071773402 0.0315148135032 0)
(-0.419665851916 0.0329938403706 0)
(-0.414768410044 0.0341234517626 0)
(-0.407848392117 0.0347093660334 0)
(-0.428333654555 -0.0515459691617 0)
(-0.439658120524 -0.0465015427639 0)
(-0.447016766013 -0.0383529833708 0)
(-0.451653143142 -0.0319727025979 0)
(-0.454251921151 -0.0258586440958 0)
(-0.455558472662 -0.0208224629807 0)
(-0.456050131728 -0.0164431974461 0)
(-0.45605708128 -0.0127705334966 0)
(-0.455786896295 -0.00963387982637 0)
(-0.455369369508 -0.00696750728752 0)
(-0.454883344076 -0.00467918335328 0)
(-0.454375287422 -0.00270749593308 0)
(-0.453871547793 -0.000995488725151 0)
(-0.453385857304 0.000500863721091 0)
(-0.452924227686 0.00181897929278 0)
(-0.452487912606 0.00298932293393 0)
(-0.452075301043 0.00403748224567 0)
(-0.451683063284 0.00498482232935 0)
(-0.451306862511 0.00584942722916 0)
(-0.450941774773 0.00664666288224 0)
(-0.450582532326 0.00738970311327 0)
(-0.450223651187 0.00808991699671 0)
(-0.44985948686 0.00875719618079 0)
(-0.449484243744 0.00940021483659 0)
(-0.449091955601 0.0100266455139 0)
(-0.448676447709 0.0106433361117 0)
(-0.448231287744 0.0112564573959 0)
(-0.447749729691 0.0118716260129 0)
(-0.447224653814 0.0124940079964 0)
(-0.446648503806 0.0131284063179 0)
(-0.446013223059 0.0137793358181 0)
(-0.445310187169 0.0144510880712 0)
(-0.444530137235 0.0151477892198 0)
(-0.443663097171 0.0158734521964 0)
(-0.442698298104 0.0166320275672 0)
(-0.441624031091 0.0174274499447 0)
(-0.440427555153 0.0182636887945 0)
(-0.439094691045 0.0191447778946 0)
(-0.437609787081 0.0200748477852 0)
(-0.43595428628 0.0210580300986 0)
(-0.434107534897 0.0220983173497 0)
(-0.432041163118 0.0231988151082 0)
(-0.429726088838 0.0243607263753 0)
(-0.427108888002 0.0255800497492 0)
(-0.424156057145 0.0268433327388 0)
(-0.420747467274 0.0281176378896 0)
(-0.416920582595 0.0293371864717 0)
(-0.41235807959 0.0303940907817 0)
(-0.40759698066 0.0311044441085 0)
(-0.401387004471 0.0314083839803 0)
(-0.431776554116 -0.0453116280573 0)
(-0.442822883863 -0.0417545577121 0)
(-0.450614591057 -0.0352903854846 0)
(-0.456014230856 -0.0299074545941 0)
(-0.459459874015 -0.0245279305091 0)
(-0.461560233254 -0.0199305412812 0)
(-0.462723175875 -0.0158302410214 0)
(-0.463262562473 -0.0123178592081 0)
(-0.463386978963 -0.00927115731336 0)
(-0.463238473361 -0.00664970844416 0)
(-0.46290988531 -0.00437988972108 0)
(-0.462461769672 -0.0024116023231 0)
(-0.461932968153 -0.000695254087559 0)
(-0.46134802639 0.00080855151815 0)
(-0.460722071712 0.00213433105855 0)
(-0.460064012157 0.00331073571782 0)
(-0.459378649341 0.00436224010308 0)
(-0.458668050182 0.00530952549347 0)
(-0.457932450105 0.00617026007083 0)
(-0.457170839399 0.00695955021407 0)
(-0.456381346655 0.00769039845174 0)
(-0.45556148631 0.00837404532628 0)
(-0.454708317949 0.00902026885022 0)
(-0.453818546915 0.00963762688084 0)
(-0.452888586578 0.010233662924 0)
(-0.451914595211 0.0108150778647 0)
(-0.450892496234 0.0113878757156 0)
(-0.449817987142 0.0119574872586 0)
(-0.44868654068 0.0125288759171 0)
(-0.447493399112 0.0131066288581 0)
(-0.446233562889 0.0136950361016 0)
(-0.444901768898 0.0142981595597 0)
(-0.443492461157 0.0149198938651 0)
(-0.44199973261 0.0155640191209 0)
(-0.440417260048 0.0162342464215 0)
(-0.438738143864 0.0169342507905 0)
(-0.436954787882 0.017667689938 0)
(-0.435058430002 0.0184381833487 0)
(-0.433039058974 0.0192492416157 0)
(-0.430883911068 0.0201040505131 0)
(-0.428578348578 0.0210050667127 0)
(-0.426100475931 0.0219531368688 0)
(-0.423428663944 0.0229459402466 0)
(-0.420519911793 0.0239753182213 0)
(-0.417353949835 0.0250222030829 0)
(-0.413837358547 0.0260519936649 0)
(-0.410028031767 0.0269995996134 0)
(-0.405683127411 0.0277821920675 0)
(-0.401294352631 0.0282523206895 0)
(-0.39583877939 0.0284167655064 0)
(-0.432100307728 -0.039670110707 0)
(-0.442306329059 -0.0372035656938 0)
(-0.44997100913 -0.0321140990385 0)
(-0.455635620969 -0.0276265852182 0)
(-0.459535911138 -0.022963969785 0)
(-0.462131583922 -0.0188403885414 0)
(-0.463749563184 -0.0150760254006 0)
(-0.464668119495 -0.011787160106 0)
(-0.465082773804 -0.00889346793752 0)
(-0.465136432972 -0.00637576316993 0)
(-0.464927969398 -0.00417822321889 0)
(-0.464526420257 -0.00226170015938 0)
(-0.463979300618 -0.000584364257333 0)
(-0.463319396606 0.000888117297651 0)
(-0.462569250752 0.00218683227982 0)
(-0.461744339703 0.00333815200255 0)
(-0.460855225377 0.00436502046237 0)
(-0.459909030227 0.00528709061261 0)
(-0.458910445128 0.00612133538428 0)
(-0.45786242031 0.00688238637679 0)
(-0.456766642108 0.00758291741372 0)
(-0.455623863428 0.00823393651532 0)
(-0.454434134898 0.008845052741 0)
(-0.453196967569 0.00942469707874 0)
(-0.451911448275 0.00998031451796 0)
(-0.450576321492 0.01051852709 0)
(-0.44919004689 0.0110452742769 0)
(-0.447750838124 0.0115659333207 0)
(-0.446256686315 0.0120854227487 0)
(-0.444705368658 0.0126082911903 0)
(-0.443094442934 0.0131387932893 0)
(-0.441421222213 0.0136809535977 0)
(-0.439682732215 0.014238618769 0)
(-0.437875629092 0.0148154966935 0)
(-0.43599610113 0.0154151801779 0)
(-0.434039667006 0.0160411482524 0)
(-0.432001013377 0.0166967354067 0)
(-0.429873494179 0.0173850469074 0)
(-0.427649042123 0.0181087863571 0)
(-0.425316760616 0.0188699414579 0)
(-0.422863938332 0.0196692018389 0)
(-0.420271315836 0.0205050633034 0)
(-0.417520796371 0.0213720743053 0)
(-0.414576639723 0.0222589245661 0)
(-0.411426943782 0.0231435245107 0)
(-0.408000056886 0.0239922674418 0)
(-0.404362148309 0.0247461552845 0)
(-0.400326379804 0.0253431290261 0)
(-0.396324965495 0.0256713613749 0)
(-0.391503089311 0.0257636476515 0)
(-0.430461347029 -0.0347097587734 0)
(-0.439609689503 -0.0330121447935 0)
(-0.446840607324 -0.0290150199627 0)
(-0.452457851981 -0.0253057752135 0)
(-0.456547484111 -0.0213118862018 0)
(-0.459431808354 -0.0176659314941 0)
(-0.461357706961 -0.0142643157925 0)
(-0.462558235031 -0.0112361865916 0)
(-0.463207176717 -0.00853554816332 0)
(-0.463439970123 -0.00616035232426 0)
(-0.463355253448 -0.00407096761692 0)
(-0.463025740603 -0.00223840792011 0)
(-0.462504135524 -0.000628548948513 0)
(-0.461828918053 0.000787758698878 0)
(-0.461028195984 0.00203790623948 0)
(-0.460122654208 0.0031457120486 0)
(-0.459127600174 0.00413232097748 0)
(-0.458054435754 0.005016123732 0)
(-0.456911692524 0.00581319856653 0)
(-0.45570576961 0.0065375401534 0)
(-0.454441459612 0.00720136515948 0)
(-0.453122326886 0.00781535118703 0)
(-0.451750981401 0.00838886666662 0)
(-0.450329278313 0.00893016603052 0)
(-0.448858463836 0.00944656357427 0)
(-0.447339281296 0.00994458324473 0)
(-0.445772046727 0.0104300889158 0)
(-0.444156699749 0.010908396297 0)
(-0.442492833468 0.0113843686845 0)
(-0.440779704149 0.0118624976874 0)
(-0.43901622197 0.0123469697897 0)
(-0.437200917883 0.012841718746 0)
(-0.435331890313 0.0133504629219 0)
(-0.433406711625 0.013876725273 0)
(-0.431422320635 0.0144238314563 0)
(-0.429374820913 0.0149948789293 0)
(-0.427259330948 0.0155926627247 0)
(-0.425069536464 0.016219541785 0)
(-0.422797677062 0.0168771996617 0)
(-0.420433366818 0.0175662828583 0)
(-0.417964773437 0.0182857498337 0)
(-0.415374682015 0.0190320580418 0)
(-0.412648060336 0.0197974843344 0)
(-0.409756066608 0.020568915163 0)
(-0.406693634108 0.0213236283762 0)
(-0.403407212598 0.0220308444118 0)
(-0.399965467669 0.0226402029386 0)
(-0.396221632082 0.023105713793 0)
(-0.392552067902 0.0233455872273 0)
(-0.388220682188 0.0233983911644 0)
(-0.427832633046 -0.0304031463171 0)
(-0.435918886494 -0.0292336096596 0)
(-0.442589057822 -0.0260873639369 0)
(-0.447988921489 -0.0230372226027 0)
(-0.452104151077 -0.0196458081546 0)
(-0.455143333609 -0.0164587075972 0)
(-0.457281719167 -0.0134237532991 0)
(-0.458704900685 -0.0106731742266 0)
(-0.459560495716 -0.00818747189902 0)
(-0.459970911668 -0.00597773803703 0)
(-0.460029823118 -0.00401840677592 0)
(-0.459809647412 -0.00228958014726 0)
(-0.459365193192 -0.000764455586755 0)
(-0.458738224311 0.000581032353579 0)
(-0.457960545748 0.0017704902159 0)
(-0.457056573537 0.00282503568246 0)
(-0.456045167871 0.00376383648922 0)
(-0.454941015444 0.00460384629596 0)
(-0.45375562958 0.00536008407347 0)
(-0.45249808765 0.00604575929257 0)
(-0.451175571052 0.00667249908072 0)
(-0.449793764754 0.00725053302576 0)
(-0.448357153782 0.00778888347916 0)
(-0.446869244504 0.00829553217989 0)
(-0.44533272979 0.0087775727921 0)
(-0.443749611467 0.00924134436068 0)
(-0.442121289321 0.00969254843497 0)
(-0.440448622641 0.0101363497318 0)
(-0.438731968498 0.0105774615295 0)
(-0.436971198245 0.0110202161176 0)
(-0.435165694422 0.0114686204234 0)
(-0.433314324504 0.0119263961883 0)
(-0.431415396683 0.0123970030401 0)
(-0.429466580655 0.0128836417088 0)
(-0.427464821476 0.0133892318005 0)
(-0.425406174989 0.0139163575423 0)
(-0.423285708194 0.0144671653527 0)
(-0.421097148172 0.015043202937 0)
(-0.418832969095 0.0156451501898 0)
(-0.416483469205 0.0162724530435 0)
(-0.414038062636 0.0169226848359 0)
(-0.411482074071 0.0175908626105 0)
(-0.408803892794 0.0182679900051 0)
(-0.405981370354 0.0189403981522 0)
(-0.403015198489 0.0195864206101 0)
(-0.399866076449 0.0201790064097 0)
(-0.396602058754 0.020676811185 0)
(-0.393103710044 0.0210457932159 0)
(-0.389700717937 0.0212273368071 0)
(-0.385739692786 0.0212573451882 0)
(-0.424911438171 -0.0266687189433 0)
(-0.432041487522 -0.0258559698997 0)
(-0.438135640399 -0.0233640213259 0)
(-0.443244582024 -0.020861075304 0)
(-0.447293536856 -0.0179981321745 0)
(-0.450404177032 -0.0152365596291 0)
(-0.45269215204 -0.0125561782927 0)
(-0.454298320084 -0.0100851515329 0)
(-0.455342970467 -0.00782310507945 0)
(-0.45593234336 -0.00579052438805 0)
(-0.456151884162 -0.00397349593435 0)
(-0.456070658561 -0.00235994156868 0)
(-0.455743033501 -0.000929748179034 0)
(-0.455211962912 0.000336338604866 0)
(-0.454511262025 0.00145819784445 0)
(-0.453667704891 0.00245420053412 0)
(-0.452702573576 0.00334143381886 0)
(-0.451632887121 0.00413528936996 0)
(-0.450472319096 0.00484959437164 0)
(-0.449231898121 0.00549664268605 0)
(-0.447920535513 0.00608734672458 0)
(-0.446545427036 0.00663136959163 0)
(-0.445112358907 0.0071372755002 0)
(-0.443625942233 0.00761266707284 0)
(-0.44208979262 0.00806431544179 0)
(-0.440506667284 0.00849827629591 0)
(-0.438878568382 0.00891999292833 0)
(-0.43720681853 0.00933438503655 0)
(-0.435492112974 0.00974592355738 0)
(-0.433734550426 0.0101586911818 0)
(-0.431933645469 0.0105764280827 0)
(-0.430088320149 0.0110025617807 0)
(-0.428196880929 0.0114402190171 0)
(-0.426256966751 0.0118922167096 0)
(-0.424265496627 0.0123610260098 0)
(-0.422218553828 0.0128487037419 0)
(-0.420111343069 0.0133567751804 0)
(-0.417937938021 0.0138860628561 0)
(-0.415691453997 0.0144364142607 0)
(-0.413363349522 0.0150063576253 0)
(-0.410944760631 0.0155925230651 0)
(-0.408423885263 0.0161890982143 0)
(-0.405792588382 0.0167866493701 0)
(-0.403034681539 0.0173718528165 0)
(-0.400155388903 0.0179250354748 0)
(-0.397125953642 0.0184230719372 0)
(-0.39401216876 0.0188328188126 0)
(-0.390712652463 0.0191289600455 0)
(-0.387520073536 0.019269832921 0)
(-0.383839179726 0.0192860725097 0)
(-0.422119477754 -0.0234078807052 0)
(-0.428440332737 -0.0228342110501 0)
(-0.434001962171 -0.0208429784403 0)
(-0.438804140542 -0.0187884586143 0)
(-0.442740663206 -0.0163804617339 0)
(-0.445870895078 -0.0140038000684 0)
(-0.44826368687 -0.0116562349991 0)
(-0.450020703526 -0.00945711232528 0)
(-0.451236081799 -0.00741877026362 0)
(-0.451998755003 -0.00556774205445 0)
(-0.452384027763 -0.00389927768188 0)
(-0.452455511031 -0.00240774034831 0)
(-0.452265218727 -0.00107889264286 0)
(-0.451855645092 0.000102124646622 0)
(-0.451261250029 0.00115164781861 0)
(-0.450510043181 0.00208535086011 0)
(-0.449624808694 0.00291821196377 0)
(-0.44862413765 0.00366399199753 0)
(-0.447523228719 0.004335236862 0)
(-0.446334524128 0.00494322744338 0)
(-0.445068204524 0.00549806265114 0)
(-0.443732578045 0.00600874275497 0)
(-0.442334385564 0.00648328169942 0)
(-0.440879041538 0.0069288160002 0)
(-0.439370824098 0.00735171276859 0)
(-0.437813024947 0.00775766855136 0)
(-0.436208066777 0.00815179850463 0)
(-0.434557593739 0.00853871368917 0)
(-0.432862539319 0.00892258595777 0)
(-0.431123173895 0.00930719949377 0)
(-0.429339135227 0.00969598804835 0)
(-0.427509440407 0.0100920564627 0)
(-0.425632485969 0.0104981840613 0)
(-0.423706024337 0.0109168069933 0)
(-0.421727144506 0.0113499736395 0)
(-0.419692202019 0.0117992683727 0)
(-0.417596825681 0.0122656890759 0)
(-0.415435749839 0.0127494771279 0)
(-0.413203049672 0.0132498590043 0)
(-0.410891621955 0.013764738605 0)
(-0.408494510217 0.0142902013207 0)
(-0.406002736401 0.0148201009793 0)
(-0.403411327686 0.0153451584173 0)
(-0.400709016856 0.0158529494813 0)
(-0.397904358852 0.0163261796893 0)
(-0.394976043581 0.016745443123 0)
(-0.391986880671 0.0170845304 0)
(-0.388847242319 0.0173244788114 0)
(-0.38582110456 0.0174356630932 0)
(-0.382355029504 0.0174433209108 0)
(-0.419660061321 -0.0205258107593 0)
(-0.425319951413 -0.0201122565758 0)
(-0.430416181795 -0.0185057755536 0)
(-0.434925871437 -0.0168166991552 0)
(-0.438730567743 -0.0147961537028 0)
(-0.44184741225 -0.0127621876022 0)
(-0.444310248184 -0.0107211495086 0)
(-0.446188223042 -0.00878081606922 0)
(-0.447551960403 -0.00696104759555 0)
(-0.448473443813 -0.00529159038756 0)
(-0.449017078353 -0.00377447709162 0)
(-0.449239802031 -0.00240911102067 0)
(-0.449190002229 -0.00118620589373 0)
(-0.448908537846 -9.4773186295e-05 0)
(-0.448429506984 0.000878271841238 0)
(-0.447781319333 0.00174604279498 0)
(-0.446987582191 0.00252145311929 0)
(-0.446067911444 0.00321662217658 0)
(-0.445038592221 0.00384277282283 0)
(-0.443913129766 0.00441011525727 0)
(-0.442702695283 0.00492787025457 0)
(-0.441416489709 0.00540430934634 0)
(-0.440062038836 0.00584683233374 0)
(-0.438645433682 0.0062620497985 0)
(-0.437171526124 0.00665587024608 0)
(-0.435644088037 0.00703358251803 0)
(-0.434065940239 0.00739993166461 0)
(-0.432439056006 0.00775918527065 0)
(-0.430764643103 0.00811518900501 0)
(-0.429043206669 0.00847140996348 0)
(-0.427274596318 0.00883096646938 0)
(-0.425458036728 0.00919664268191 0)
(-0.423592148722 0.00957088549351 0)
(-0.421674951171 0.00995578094107 0)
(-0.419703870723 0.0103530047333 0)
(-0.417675711514 0.0107637432636 0)
(-0.41558670284 0.0111885727775 0)
(-0.413432401155 0.0116272984876 0)
(-0.411207969174 0.0120787206806 0)
(-0.408907793726 0.0125403707993 0)
(-0.406526771369 0.0130081055844 0)
(-0.404058464994 0.013475809012 0)
(-0.401500585431 0.0139347369535 0)
(-0.398845735748 0.0143736609982 0)
(-0.396104794018 0.0147777138958 0)
(-0.393261545956 0.0151308207825 0)
(-0.390375658475 0.0154124033481 0)
(-0.387365161149 0.0156081522744 0)
(-0.384471940523 0.0156968723155 0)
(-0.381173507458 0.01569911117 0)
(-0.417592902403 -0.0179411400732 0)
(-0.42272270182 -0.0176357105417 0)
(-0.427424502611 -0.0163286799803 0)
(-0.43166923715 -0.0149379201147 0)
(-0.435337709763 -0.0132462374971 0)
(-0.438419971563 -0.011514918757 0)
(-0.440924766958 -0.00975320550189 0)
(-0.442895397532 -0.00805607377099 0)
(-0.444382333906 -0.00644697289112 0)
(-0.44544195623 -0.0049565868114 0)
(-0.446127894191 -0.00359159287783 0)
(-0.446489929452 -0.00235509183416 0)
(-0.446572108853 -0.00124178511129 0)
(-0.446412906263 -0.000243964070784 0)
(-0.446045373606 0.000648572465393 0)
(-0.445497735155 0.00144658353324 0)
(-0.444793941677 0.00216102285555 0)
(-0.443954250851 0.00280240816957 0)
(-0.442995734959 0.00338063987584 0)
(-0.44193273278 0.00390483516877 0)
(-0.440777234197 0.00438330221776 0)
(-0.439539208384 0.00482354407795 0)
(-0.438226880516 0.00523230574687 0)
(-0.436846965109 0.00561563303671 0)
(-0.435404861966 0.0059789405458 0)
(-0.433904820397 0.00632707873714 0)
(-0.432350076286 0.0066643972467 0)
(-0.430742965762 0.00699480081573 0)
(-0.429085018898 0.00732179605705 0)
(-0.427377035611 0.00764852725316 0)
(-0.425619147206 0.00797779958268 0)
(-0.4238108634 0.00831208800146 0)
(-0.421951112018 0.00865352931092 0)
(-0.420038263557 0.00900389491301 0)
(-0.418070166479 0.00936453958654 0)
(-0.416044151381 0.00973632373402 0)
(-0.413957112685 0.0101194993503 0)
(-0.411805467046 0.0105135637038 0)
(-0.40958546206 0.0109170557323 0)
(-0.407292894931 0.011327337817 0)
(-0.404924342204 0.0117402766679 0)
(-0.402475542687 0.012150040384 0)