/*--------------------------------*- C++ -*----------------------------------*\
| =========                 |                                                 |
| \\      /  F ield         | OpenFOAM: The Open Source CFD Toolbox           |
|  \\    /   O peration     | Version:  2.4.0                                 |
|   \\  /    A nd           | Web:      www.OpenFOAM.org                      |
|    \\/     M anipulation  |                                                 |
\*---------------------------------------------------------------------------*/
FoamFile
{
    version     2.0;
    format      ascii;
    class       volScalarField;
    location    "0.5";
    object      rho;
}
// * * * * * * * * * * * * * * * * * * * * * * * * * * * * * * * * * * * * * //

dimensions      [1 -3 0 0 0 0 0];

internalField   nonuniform List<scalar> 
100
(
1.46241854206e+186
-9.22190786753e+179
-1.25266424152e+179
4.56627907203e+172
2.16118199035e+171
-7.41378097953e+164
-2.46728829093e+163
1.37483252012e+157
-8.76215702144e+157
-1.20071880097e+163
-1.12993520577e+179
-6.82639574772e+178
2.44636016981e+172
1.65897230658e+171
-6.93965111045e+164
-2.76260831191e+163
1.34581846125e+157
4.30272422486e+155
-1.39600423884e+156
1.42769404067e+157
-4.02980466247e+177
4.40644493023e+171
5.79785863494e+170
-3.38942276369e+164
-1.93169620338e+163
1.19033365093e+157
4.55931328626e+155
-1.38691174032e+149
9.34616701224e+149
1.63044670046e+155
5.26896901545e+170
2.70025034166e+170
-1.55585599993e+164
-1.18838822797e+163
8.00268613013e+156
3.69730410453e+155
-3.08333525504e+149
-1.0791921106e+148
5.66745814965e+148
-2.70369785145e+149
1.56152949284e+169
-2.93375914521e+163
-3.70715385039e+162
3.39153352028e+156
2.09522394662e+155
-2.07554972133e+149
-8.70974994667e+147
5.30171758444e+141
-1.55834305256e+142
-2.85372413994e+147
-2.97070350355e+162
-1.43125228223e+162
1.27754849379e+156
1.03718180823e+155
-1.11395598995e+149
-5.63828897641e+147
7.40542394473e+141
2.80524409022e+140
-1.97709997518e+141
9.00189366332e+141
-8.09191087449e+160
2.42299334891e+155
3.01883399606e+154
-4.28766609658e+148
-2.78761330233e+147
4.20133314296e+141
1.88298072385e+140
-1.10577931741e+135
3.47659856147e+135
4.07166752004e+139
2.23522277185e+154
1.00692654542e+154
-1.41127965233e+148
-1.19038353141e+147
1.9536156072e+141
1.04489489336e+140
-2.15234291706e+134
-8.62729322162e+132
1.10610613985e+134
-5.24751346867e+134
5.57108460981e+152
-2.64881087088e+147
-3.25326627119e+146
6.92821411013e+140
4.63437197857e+139
-1.07825080802e+134
-5.0463057819e+132
1.09277001534e+128
-2.07791000521e+129
-4.88111893896e+131
-2.30827674414e+146
-9.53334902966e+145
2.0558998497e+140
1.70323103982e+139
-4.3881941708e+133
-2.33554795292e+132
7.2013978893e+126
2.90096178958e+125
5.18902487729e+127
2.36735915137e+128
)
;

boundaryField
{
    top
    {
        type            bounceBack;
        value           uniform 1;
    }
    bottom
    {
        type            bounceBack;
        value           nonuniform 0();
    }
    left
    {
        type            cyclic;
    }
    right
    {
        type            cyclic;
    }
    frontAndBack
    {
        type            empty;
    }
    procBoundary2to0
    {
        type            processor;
        value           nonuniform List<scalar> 10(-2.56140737105e+179 -1.22031779187e+179 4.36906301912e+172 2.42193685947e+171 -7.36405921983e+164 -2.4402294412e+163 9.09979521559e+156 2.64260712745e+155 -7.52946313174e+156 2.23324477476e+156);
    }
    procBoundary2to3
    {
        type            processor;
        value           nonuniform List<scalar> 10(-4.58861791572e+155 8.2010830715e+153 1.00414066719e+148 -3.78691974538e+146 -7.2718222196e+140 -4.86343747405e+139 7.95188367414e+133 2.55456916058e+132 1.07506519592e+128 1.4791730755e+126);
    }
    procBoundary2to3throughleft
    {
        type            processorCyclic;
        value           nonuniform List<scalar> 10(4.02694469422e+177 -5.85238597153e+175 -1.41708128829e+169 2.25810075508e+167 7.01450320414e+160 -1.17073112143e+159 -4.57166758744e+152 8.05304228635e+150 4.021229185e+144 -7.48393721513e+142);
    }
}


// ************************************************************************* //
