/*--------------------------------*- C++ -*----------------------------------*\
| =========                 |                                                 |
| \\      /  F ield         | OpenFOAM: The Open Source CFD Toolbox           |
|  \\    /   O peration     | Version:  2.4.0                                 |
|   \\  /    A nd           | Web:      www.OpenFOAM.org                      |
|    \\/     M anipulation  |                                                 |
\*---------------------------------------------------------------------------*/
FoamFile
{
    version     2.0;
    format      ascii;
    class       volVectorField;
    location    "0.5";
    object      U;
}
// * * * * * * * * * * * * * * * * * * * * * * * * * * * * * * * * * * * * * //

dimensions      [0 1 -1 0 0 0 0];

internalField   nonuniform List<vector> 
100
(
(0.0873300137848 1.12182378749 0)
(0.394688593607 1.12467734939 -0)
(0.591084563966 1.0524108941 -0)
(0.870149856035 0.961885870211 0)
(0.916070321096 0.896300999517 0)
(1.04239511737 0.805773465206 -0)
(1.06467790903 0.734865991252 -0)
(-0.427666461432 0.0527534102883 0)
(0.617796257029 0.0313700941927 -0)
(1.44980782043 1.10395164271 -0)
(0.1720814295 1.24085608157 -0)
(0.184270931293 1.1662707796 -0)
(0.39465093267 1.18663556653 0)
(0.545891017231 1.11799525611 0)
(0.749465287716 1.05589514412 -0)
(0.841986345135 0.978854909987 -0)
(0.953724426089 0.907265281572 0)
(0.981302302871 0.829454545335 0)
(-1.88477020122 1.92609641035 -0)
(1.26856484862 1.10471436215 0)
(0.0198478912374 1.16318246175 -0)
(0.179036820442 1.21423786515 0)
(0.519182685702 1.18797944206 0)
(0.615076014424 1.17632457754 -0)
(0.734816421416 1.07710500595 -0)
(0.830704840809 1.02466479422 0)
(0.885266537654 0.933104145959 0)
(3.91536233798 0.681487724238 -0)
(-2.66728537166 0.147071631443 0)
(0.0496958007376 1.08002799661 0)
(0.0285878439319 1.16259234979 0)
(0.0812140433734 1.16335203234 0)
(0.230607160324 1.18191179697 -0)
(0.432275355268 1.12674468089 -0)
(0.578904321385 1.1190421156 0)
(0.701595263298 1.04292301267 0)
(0.802795331036 1.00720950961 -0)
(0.860263889585 0.931071920551 -0)
(-0.336935117316 1.11907595936 0)
(0.391322031371 1.1029882566 -0)
(0.00958674065471 1.15773533428 0)
(0.100978617039 1.18596733354 -0)
(0.391056793829 1.18905593467 -0)
(0.42776145847 1.18395545094 0)
(0.578391105588 1.11728860812 0)
(0.656304190566 1.09889185867 -0)
(0.746111227363 1.02095753009 -0)
(2.23611527364 0.804336331694 0)
(1.36837075273 2.4018103325 -0)
(-1.05800315382 0.229415090724 -0)
(0.0010010336992 1.17169118036 -0)
(0.0570561849922 1.16367554657 -0)
(0.184839333922 1.18482254731 0)
(0.364753844569 1.14640629452 0)
(0.464717528781 1.15216588145 -0)
(0.595166028755 1.09039631466 -0)
(0.676243839465 1.07540106175 0)
(0.753667829296 1.00601709319 0)
(-0.0448019050913 1.17922345084 -0)
(0.182868587901 1.16996864769 0)
(0.00734582692043 1.15843006617 -0)
(0.0768691385731 1.18433620969 0)
(0.318627067949 1.18736044026 0)
(0.339892900729 1.18651191342 -0)
(0.481904001176 1.13883205032 -0)
(0.539919271816 1.13389150033 0)
(0.641102463453 1.07036439852 0)
(-3.03999538944 1.06766298517 -0)
(0.362510439237 1.07364814214 0)
(1.38528686467 1.47975285938 0)
(-0.00399186055872 1.16884033987 0)
(0.0508719703593 1.16355070581 0)
(0.169656979907 1.18450959174 -0)
(0.319135448548 1.15522848912 -0)
(0.394680449076 1.16454313581 0)
(0.516508286158 1.11659378232 0)
(0.578944313953 1.11220269116 -0)
(0.664522973023 1.05362937309 -0)
(0.0559313688159 1.00965149151 0)
(0.126503748429 1.10878342959 -0)
(0.00683657010295 1.15834559364 0)
(0.0672548514834 1.18043794073 -0)
(0.275021397868 1.18429685265 -0)
(0.293047063407 1.18467919423 0)
(0.417821012436 1.14958641928 0)
(0.463847066533 1.14989452518 -0)
(0.563029553 1.09951996396 -0)
(-0.192286890962 0.937192693485 0)
(0.207923314689 0.647729269254 -0)
(10.7136108543 1.65921061101 -0)
(-0.00450354166299 1.13804560882 -0)
(0.0430539626154 1.16135725512 -0)
(0.134889589768 1.14937454359 0)
(0.256625292244 1.15792251642 0)
(0.300229244249 1.14006102821 -0)
(0.415405072533 1.1368671594 -0)
(0.445747768524 1.11435894037 0)
(0.545131187639 1.09823039592 0)
(-0.526062996244 1.12202229142 0)
(0.563198945343 1.14550961478 0)
)
;

boundaryField
{
    top
    {
        type            fixedValue;
        value           uniform (0.1 0 0);
    }
    bottom
    {
        type            fixedValue;
        value           nonuniform 0();
    }
    left
    {
        type            cyclic;
    }
    right
    {
        type            cyclic;
    }
    frontAndBack
    {
        type            empty;
    }
    procBoundary2to0
    {
        type            processor;
        value           nonuniform List<vector> 10((1.20701923364 0.909950379176 -0) (0.580825365507 1.12157435442 -0) (0.98340575263 0.980169106184 0) (0.946414084074 0.947497001597 0) (1.05579841156 0.820815930336 -0) (1.06222530779 0.732299491021 -0) (1.1324374389 0.63194046499 0) (1.11315526669 0.580446339436 0) (1.26834579367 0.335931089818 -0) (-9.8968256549 -5.49832179079 0));
    }
    procBoundary2to3
    {
        type            processor;
        value           nonuniform List<vector> 10((-1.73008130735 0.587208192451 -0) (-0.653061549034 2.78936985271 0) (-1.19812135161 1.65480182837 0) (-0.553825786778 -1.51037077926 -0) (-0.467401593937 1.18816782972 -0) (-0.942010463552 0.848441121305 -0) (-0.224344668451 1.19480226806 0) (-0.651792284492 1.10365895864 0) (0.209754334235 1.06758464799 0) (-0.569236576861 1.14534664916 0));
    }
    procBoundary2to3throughleft
    {
        type            processorCyclic;
        value           nonuniform List<vector> 10((0.0502167142112 1.12242443137 0) (0.0811389367767 1.16059035942 -0) (0.0358431160379 1.15709716258 -0) (0.0262945369368 1.15900162386 0) (0.0391903498313 1.15435296975 0) (0.0141469854126 1.15920870739 -0) (0.0430790416383 1.15440812218 -0) (0.0114499586857 1.1591859773 0) (0.0466549273337 1.15388988296 0) (0.00954927050724 1.15870982007 -0));
    }
}


// ************************************************************************* //
