/*--------------------------------*- C++ -*----------------------------------*\
| =========                 |                                                 |
| \\      /  F ield         | OpenFOAM: The Open Source CFD Toolbox           |
|  \\    /   O peration     | Version:  2.4.0                                 |
|   \\  /    A nd           | Web:      www.OpenFOAM.org                      |
|    \\/     M anipulation  |                                                 |
\*---------------------------------------------------------------------------*/
FoamFile
{
    version     2.0;
    format      ascii;
    class       volVectorField;
    location    "0.1";
    object      U;
}
// * * * * * * * * * * * * * * * * * * * * * * * * * * * * * * * * * * * * * //

dimensions      [0 1 -1 0 0 0 0];

internalField   nonuniform List<vector> 
100
(
(-8.04969484815e-10 1.08897055102e-09 0)
(6.12635528737e-10 4.3095554876e-11 0)
(-5.55776327729e-11 -3.59817869939e-11 0)
(-1.82194537238e-13 3.28076454897e-12 0)
(1.01653407913e-12 2.02636518676e-13 0)
(-1.75411768444e-13 -6.96595559013e-14 0)
(-4.80865347541e-15 1.30347121985e-14 0)
(4.38954428361e-14 -1.67921232475e-15 0)
(-3.6033676043e-14 4.51201576102e-14 0)
(-1.69135538908e-14 -4.14251966063e-14 0)
(4.24482143191e-09 -1.97643318823e-09 0)
(-6.24808809025e-10 -7.25944166085e-11 0)
(8.36185634778e-12 6.24576328272e-11 0)
(1.29495268671e-11 -6.79292039267e-12 0)
(-2.18658424701e-12 1.37280117829e-12 0)
(-4.72469285917e-14 2.30513524935e-13 0)
(-1.21395948849e-14 1.75938430492e-12 0)
(-4.55434301383e-14 -1.33920652345e-15 0)
(-5.54452317393e-14 1.75426687066e-12 0)
(-5.05637198778e-14 3.2061159283e-14 0)
(-7.46541796599e-09 -5.20266450183e-10 0)
(2.69647820146e-09 -9.87458064534e-11 0)
(-1.85672817349e-10 3.47718034828e-11 0)
(-2.64151998908e-11 -2.03136119055e-14 0)
(8.22766854574e-12 4.24391424743e-12 0)
(-1.06029768299e-12 2.01746258589e-12 0)
(-4.45841280524e-13 4.63991692252e-12 0)
(-2.80928058595e-13 1.90434126802e-12 0)
(-3.54719725785e-13 4.6514354864e-12 0)
(-2.89653717679e-13 1.90053528472e-12 0)
(-1.1885227617e-09 3.00875788923e-09 0)
(7.73921551633e-11 1.30232415094e-10 0)
(1.58688340078e-12 -8.08308457506e-10 0)
(-6.41658254149e-12 2.13472676982e-11 0)
(-2.36323460553e-12 -6.8927422031e-10 0)
(-3.66043306686e-12 7.91304868657e-12 0)
(-3.00658803094e-12 -6.90096673526e-10 0)
(-3.61632251832e-12 8.37904051491e-12 0)
(-2.98752341996e-12 -6.90139559359e-10 0)
(-1.14527137747e-11 2.987124436e-13 0)
(3.65176111252e-09 -3.80865409273e-09 0)
(-1.17358833406e-09 -1.32756129297e-09 0)
(3.57781651317e-11 -2.59504702296e-09 0)
(-1.58336121388e-11 -1.23570395112e-09 0)
(-3.94879025028e-11 -2.64638308299e-09 0)
(-3.18072580962e-11 -1.2313194376e-09 0)
(-3.48401481025e-11 -2.64575950541e-09 0)
(-3.21007316738e-11 -1.23152093613e-09 0)
(-2.73283791243e-11 -2.65012876393e-09 0)
(-5.39372398954e-11 -1.15797276903e-09 0)
(-8.24995203963e-09 7.17809251239e-09 0)
(1.07246935016e-09 -6.7341567834e-09 0)
(-1.72724026251e-10 5.4638079054e-09 0)
(-2.38920864459e-10 -6.67120342566e-09 0)
(-1.598489156e-10 5.57595856804e-09 0)
(-2.10369606021e-10 -6.67641238359e-09 0)
(-1.65105592646e-10 5.57589713801e-09 0)
(-2.30517600298e-10 -6.65650362854e-09 0)
(-4.88216377822e-11 5.56897596282e-09 0)
(-5.16642274615e-10 -6.1743178515e-09 0)
(2.8749725959e-09 2.73351008701e-09 0)
(-4.03416040248e-09 7.81478889283e-09 0)
(-9.5933726e-10 -1.48111348289e-09 0)
(-8.40848646498e-10 6.58441594551e-09 0)
(-1.29571302304e-09 -1.16423297226e-09 0)
(-9.23859287929e-10 6.56957306246e-09 0)
(-1.27231034077e-09 -1.19415699691e-09 0)
(-8.95484148364e-10 6.61751254133e-09 0)
(-1.21420887299e-09 -1.30481500545e-09 0)
(-1.53199758748e-09 5.18155596195e-09 0)
(1.64536441774e-08 -3.66950339796e-08 0)
(-1.10167275244e-08 1.89248080111e-08 0)
(-5.76633776261e-09 -3.23922615603e-08 0)
(-6.25850820433e-09 1.86328662357e-08 0)
(-5.31802923508e-09 -3.31310121799e-08 0)
(-6.41714287289e-09 1.87309527961e-08 0)
(-5.4114389472e-09 -3.30976733633e-08 0)
(-5.99936636229e-09 1.81591629842e-08 0)
(-7.12122202733e-09 -3.2961131764e-08 0)
(-4.4556322134e-09 1.75755449484e-08 0)
(-6.57455554163e-08 8.40043113881e-08 0)
(-1.33968747372e-08 -4.93092376974e-08 0)
(-3.54515051943e-08 9.7070966293e-08 0)
(-2.04383909201e-08 -3.68656342132e-08 0)
(-3.38995846433e-08 9.42547818668e-08 0)
(-1.99731701232e-08 -3.70156703177e-08 0)
(-3.42110213449e-08 9.41719984819e-08 0)
(-2.04882092398e-08 -3.55352198428e-08 0)
(-3.33612338037e-08 9.20220492666e-08 0)
(-1.80554615791e-08 -3.83826587062e-08 0)
(-3.05719243084e-07 -7.68952010195e-08 0)
(-9.83686025997e-08 1.70761010016e-08 0)
(-2.75037392721e-08 -7.6207839779e-08 0)
(-1.34781009393e-07 1.67493603627e-08 0)
(-2.9187260103e-08 -7.44582217847e-08 0)
(-1.33153999946e-07 1.64002150056e-08 0)
(-2.82513242507e-08 -7.47044917944e-08 0)
(-1.32421624687e-07 1.67777020396e-08 0)
(-4.03980227158e-08 -7.44913933557e-08 0)
(-1.05488904025e-07 1.31705239058e-08 0)
)
;

boundaryField
{
    top
    {
        type            fixedValue;
        value           nonuniform 0();
    }
    bottom
    {
        type            fixedValue;
        value           uniform (0 0 0);
    }
    left
    {
        type            cyclic;
    }
    right
    {
        type            cyclic;
    }
    frontAndBack
    {
        type            empty;
    }
    procBoundary0to1
    {
        type            processor;
        value           nonuniform List<vector> 10((-2.82170120602e-14 -1.62925228864e-14 0) (-8.13932254928e-15 7.03603841856e-15 0) (1.04326269845e-14 -2.26207941267e-15 0) (1.33656280487e-12 1.67346414502e-11 0) (7.56081307913e-12 -3.12681318023e-10 0) (1.00316560261e-11 -4.57494554516e-09 0) (1.40536105038e-09 1.07863434737e-09 0) (3.66110080667e-09 2.33992223935e-08 0) (2.28194078104e-08 -7.23682958334e-08 0) (6.6140820156e-08 1.0276437283e-07 0));
    }
    procBoundary0to1throughleft
    {
        type            processorCyclic;
        value           nonuniform List<vector> 10((4.03609789889e-09 2.82574638656e-10 0) (-1.02725086949e-09 -5.65368698848e-10 0) (1.26305842063e-08 -1.06274570751e-10 0) (-1.70300964212e-10 1.03718355377e-09 0) (-4.9970216734e-09 -2.38195697715e-10 0) (1.21805302962e-09 3.59857098879e-10 0) (-1.62331697446e-08 -5.72526526952e-09 0) (1.27150585064e-09 -6.82327802151e-09 0) (1.71098779487e-08 3.55006052732e-08 0) (5.8714006084e-08 -2.30720459484e-08 0));
    }
    procBoundary0to2
    {
        type            processor;
        value           nonuniform List<vector> 10((4.74649783746e-07 1.49609976921e-07 0) (6.03931262901e-07 -1.47142272884e-08 0) (4.77918762775e-07 1.51186674614e-07 0) (5.98704270358e-07 -1.29685407986e-08 0) (4.78396394747e-07 1.50954564731e-07 0) (5.98987377155e-07 -1.29209129852e-08 0) (4.78352605135e-07 1.51064698991e-07 0) (5.98413773361e-07 -1.22093326721e-08 0) (4.78800805627e-07 1.47788245212e-07 0) (5.99849420731e-07 -1.85993328974e-08 0));
    }
}


// ************************************************************************* //
