/*--------------------------------*- C++ -*----------------------------------*\
| =========                 |                                                 |
| \\      /  F ield         | OpenFOAM: The Open Source CFD Toolbox           |
|  \\    /   O peration     | Version:  2.4.0                                 |
|   \\  /    A nd           | Web:      www.OpenFOAM.org                      |
|    \\/     M anipulation  |                                                 |
\*---------------------------------------------------------------------------*/
FoamFile
{
    version     2.0;
    format      ascii;
    class       volScalarField;
    location    "1";
    object      rho;
}
// * * * * * * * * * * * * * * * * * * * * * * * * * * * * * * * * * * * * * //

dimensions      [1 -3 0 0 0 0 0];

internalField   nonuniform List<scalar> 
400
(
-1.27906633952e+185
-9.65653776038e+182
1.41272962985e+177
9.12411476587e+174
-1.67440930095e+169
-1.05972251804e+167
-3.98174294075e+167
8.07473665881e+172
2.23147990649e+175
-5.09854143045e+180
-1.74583523052e+183
4.12726149382e+188
1.80265899124e+191
-2.94091195875e+196
-9.20968730021e+198
1.1124585477e+204
4.72668303942e+196
-1.05827289064e+196
5.0039408841e+191
1.66556164454e+191
-3.01361928123e+187
-1.49433354052e+181
3.63144801652e+179
1.04449739664e+173
-5.48108601378e+171
-1.03491280281e+167
3.78886603591e+172
6.16288341407e+174
-2.80990398416e+180
-5.07330276667e+182
2.88478081735e+188
5.83302190777e+190
-3.80486618709e+196
-8.49562529018e+198
4.63510640111e+204
1.10989206434e+205
-6.47067314233e+203
-6.08919417143e+196
1.38323993404e+195
1.4754892524e+188
-1.89035769767e+188
-1.31007201855e+187
4.91851586007e+180
1.40391735314e+179
-6.46651620609e+172
9.12116554131e+171
7.77624070717e+173
-9.01901242871e+179
-6.47557535605e+181
1.05664772011e+188
7.53008262352e+189
-1.73101104952e+196
-1.39905276146e+198
3.61466438262e+204
2.00194165115e+205
-3.98942807621e+212
-8.64945413762e+204
1.36040189316e+204
6.04231547847e+195
1.44163108351e+195
8.91723330409e+194
-2.44511950272e+188
-8.57958383095e+186
1.90603610134e+180
6.25926551956e+178
3.86609261379e+172
-1.48632786212e+179
-4.97763927993e+180
1.85789429092e+187
5.66044099939e+188
-3.22432684259e+195
-9.69653122926e+196
7.61248740513e+203
1.73864426554e+203
-2.75211195413e+212
-1.19704788026e+213
2.75265129234e+212
-3.41432514252e+204
-4.28852048085e+203
2.35792456977e+195
-1.33181973992e+195
-1.33725323863e+194
1.47138465061e+187
7.62264628705e+185
-1.31262071978e+179
-1.19695046521e+178
1.33148053226e+179
7.60893501656e+185
-1.93654408718e+187
-1.335198618e+194
3.86366900842e+195
3.30712028376e+202
-8.79825362811e+203
-1.18601597427e+211
2.27691964281e+212
5.70408087374e+213
-3.22683479571e+212
-1.18742341566e+211
6.45820905769e+203
3.31133880798e+202
-1.93722105239e+195
1.33681872871e+194
9.61653389863e+186
-7.61980535413e+185
-5.69725949381e+178
1.19639890668e+178
1.81432474371e+179
-7.60604381072e+185
-2.10088533022e+187
1.33475984855e+194
2.53612338377e+195
-3.30622703912e+202
-6.46157804571e+203
1.18573956979e+211
3.2266220187e+212
-5.7036067171e+213
-2.27800623006e+212
1.18714838826e+211
8.80265156106e+203
-3.31044803216e+202
1.64446171275e+195
-5.47363196528e+188
-1.06421850101e+187
4.6227133147e+180
8.52722711013e+178
-3.19297248573e+172
-8.19378047339e+178
-1.95714989697e+180
1.10415346002e+187
2.50487403516e+188
-1.36958146332e+195
-2.8679601262e+195
4.28612929942e+203
3.42551248666e+204
-2.751540302e+212
1.19660331366e+213
2.75207975568e+212
-1.72290418033e+203
-7.61351612165e+203
9.72263529686e+196
-3.5307521272e+189
-1.0405156781e+188
3.34365666571e+181
8.61922363638e+179
-4.26793611874e+173
-8.44538545592e+171
6.88281692378e+172
-1.26289687325e+179
-5.29568279619e+180
1.07379714097e+187
3.32453832034e+188
-1.44054126764e+195
-6.06494873957e+195
-1.36182427419e+204
8.64044415568e+204
3.98940789094e+212
-1.9996169692e+205
-3.61195502857e+204
1.41331863263e+198
1.72927144872e+196
-1.65892856659e+188
5.05520411566e+182
1.78540793756e+180
-5.92686391787e+174
-2.54485565027e+172
9.40238836679e+166
6.76194124672e+171
8.13506982183e+172
-4.69870424386e+179
-1.46754158734e+180
4.46584425929e+187
-6.07280595732e+187
-1.36261109293e+195
6.1130278738e+196
6.49177823895e+203
-1.10992161813e+205
-4.6282643284e+204
8.55789541547e+198
3.79926069676e+196
-5.87999547333e+190
1.1806475565e+183
5.19262946824e+180
-1.63954099408e+175
-7.98929211787e+172
3.06205888603e+167
1.52994312595e+165
4.89214518074e+166
-2.50505300737e+171
-3.74625700468e+174
7.36935096304e+179
8.37647079085e+180
-9.41625643353e+187
-1.08874481297e+189
1.12132249363e+196
-4.33782483515e+196
-1.11243304298e+204
9.25715413647e+198
3.19248670589e+196
-2.201150537e+191
-4.84748733976e+188
5.50126086859e+180
-6.17969766396e+175
-1.20904912577e+173
1.19464802398e+168
3.0217835834e+165
-3.09080399751e+160
-7.24217399949e+164
-2.43839806936e+166
2.19420188601e+172
6.99303720707e+174
-7.38743844151e+179
7.18730615536e+181
1.30439087427e+188
-1.15084470872e+189
-8.5889488452e+194
5.24434090269e+196
1.95701519126e+196
-2.74646169876e+191
-4.35536187433e+188
4.42823433732e+183
-7.16494670525e+175
-1.75480380737e+173
1.97749063807e+168
5.33444603766e+165
-6.64917592696e+160
-1.89527079344e+158
-5.84708075529e+159
1.02085392824e+165
1.15288028038e+166
-2.06134922982e+172
-3.48001277328e+174
-1.39002937325e+179
1.70392681791e+182
-2.05369569309e+187
-8.32862394812e+186
4.49171709489e+195
-5.13462596729e+190
-2.55589994552e+188
3.68017064619e+183
8.37220227311e+180
-1.47892023888e+173
2.87628215698e+168
6.30424633843e+165
-1.24631980444e+161
-2.93412982942e+158
6.00470630128e+153
3.03276265618e+156
-6.80119101724e+158
-1.69003696703e+165
7.74854044606e+166
-7.06277302289e+171
-4.11599830856e+174
1.87734564337e+179
4.4494772259e+181
-4.59313929417e+186
-3.9783193279e+188
-1.22734805669e+188
2.23310593982e+183
5.5081657246e+180
-9.8661010159e+175
2.41004276899e+168
6.01755929502e+165
-1.50625455827e+161
-3.6169460456e+158
9.33391534225e+153
3.72013588368e+151
2.90436163782e+152
-9.30384562648e+156
-5.77558855076e+159
1.2051152043e+165
1.43992040098e+167
-4.74067787432e+171
-2.73051285119e+174
5.49140937952e+179
1.61853768362e+180
-2.55997711898e+187
4.10487837534e+182
2.64183468133e+180
-5.67588169227e+175
-1.6455541738e+173
4.26329046312e+165
-1.36941194238e+161
-3.40140562809e+158
1.15343746925e+154
2.72766129122e+151
-1.01484000381e+147
-2.29278051488e+151
3.72646045809e+152
5.75821899392e+157
-6.57620060582e+159
-3.36854105868e+164
1.09056218166e+167
-1.88434463346e+172
-5.79452198801e+173
1.11523085763e+179
3.76639705647e+180
1.04515338053e+180
-2.72741299483e+175
-8.93723592882e+172
2.41627543506e+168
-9.24526446312e+160
-2.52721330983e+158
1.0631865136e+154
2.62887169142e+151
-1.26586825394e+147
-2.14475939732e+144
-5.69638543849e+145
3.23848017344e+151
6.88898121529e+152
-6.57786751801e+157
-6.04411178946e+159
5.62925501272e+164
4.84433562447e+166
-8.35463857942e+171
-4.74444598682e+172
2.01160994534e+179
-4.66318629746e+174
-3.70529190615e+172
1.136495299e+168
3.94084915516e+165
-1.5460064278e+158
7.45230205105e+153
2.0619678406e+151
-1.19181581348e+147
-2.95234816556e+144
-1.48763810349e+140
-5.2798799945e+143
-8.50297455222e+145
-6.57919534009e+151
4.99941119e+152
-1.35485697795e+157
-3.24337166165e+159
4.41227063991e+164
1.0556042462e+166
-2.20177748558e+171
-4.96645774889e+172
-1.26390787781e+172
4.50790767958e+167
1.86137901185e+165
-7.68195123812e+160
4.27139601237e+153
1.29745482977e+151
-8.9809455423e+146
-2.37565753779e+144
1.79775591976e+140
-3.19988390742e+140
4.55746604421e+140
-1.0069167761e+144
-6.79357587603e+145
3.61786132328e+150
2.6403025573e+152
-2.34563073716e+157
-1.26315878704e+159
1.77663082962e+164
1.22939346181e+165
-2.2568313874e+171
7.26464509579e+166
6.88555058263e+164
-3.12628649925e+160
-1.26367917101e+158
6.98561097621e+150
-5.31904870398e+146
-1.61725363839e+144
1.39525605732e+140
3.67559569656e+137
-4.21087825981e+133
-4.15549100294e+139
1.24868145545e+140
-1.46601915369e+144
-3.65915246719e+145
-1.36160844839e+150
1.2750430647e+152
-1.35471067998e+157
-2.78531367756e+158
4.80187898231e+163
8.74382053746e+164
2.0804542008e+164
-1.0697720378e+160
-5.34435413626e+157
3.11523502692e+153
-2.59957531042e+146
-8.29394331457e+143
8.29490519976e+139
2.32459979668e+137
-2.87785069265e+133
-7.75396944038e+130
-1.32142591901e+132
2.32250641303e+137
4.6537827965e+138
-6.13498909248e+143
-1.65126756946e+145
1.13514317414e+150
4.41153559619e+151
-4.85127362086e+156
-3.94618845383e+157
3.46516188517e+163
-1.63359628813e+159
-1.74157427431e+157
1.09564578117e+153
4.92446732674e+150
)
;

boundaryField
{
    top
    {
        type            bounceBack;
        value           uniform 1;
    }
    bottom
    {
        type            bounceBack;
        value           uniform 1;
    }
    left
    {
        type            cyclic;
    }
    right
    {
        type            cyclic;
    }
    frontAndBack
    {
        type            empty;
    }
}


// ************************************************************************* //
