/*--------------------------------*- C++ -*----------------------------------*\
| =========                 |                                                 |
| \\      /  F ield         | OpenFOAM: The Open Source CFD Toolbox           |
|  \\    /   O peration     | Version:  2.4.0                                 |
|   \\  /    A nd           | Web:      www.OpenFOAM.org                      |
|    \\/     M anipulation  |                                                 |
\*---------------------------------------------------------------------------*/
FoamFile
{
    version     2.0;
    format      ascii;
    class       volVectorField;
    location    "1";
    object      U;
}
// * * * * * * * * * * * * * * * * * * * * * * * * * * * * * * * * * * * * * //

dimensions      [0 1 -1 0 0 0 0];

internalField   nonuniform List<vector> 
400
(
(1.25563371689 1.23118526815 -0)
(1.16202934595 0.147170110807 -0)
(1.14495250627 0.286750343854 0)
(1.15749929044 0.0323531729485 0)
(1.15738913685 0.065010970742 -0)
(1.12210326891 0.00140598658262 -0)
(-1.16790602094 -0.257854783022 -0)
(-1.13477379281 -0.512461053715 0)
(-1.15024949609 -0.379734296519 0)
(-1.07926784795 -0.683034116405 -0)
(-1.06035352367 -0.655796735061 -0)
(-0.930526841348 -0.933817061041 0)
(-0.875931405977 -1.37234010302 0)
(-0.577805565544 -1.15377610117 -0)
(-0.147369987417 -1.12766073405 -0)
(-0.0222403316499 -1.1619086785 0)
(18.9528368399 21.8470736685 0)
(87.2581610705 100.732837255 -0)
(-14.1882700519 -16.7754961455 0)
(1.12761751751 0.702461403581 0)
(1.09507737256 -0.3087430446 -0)
(1.09810493566 0.532564998738 -0)
(1.11439560376 -0.486645676096 0)
(1.15342762699 0.741464918961 0)
(1.13794403381 -0.429401573342 -0)
(-1.16214724205 -0.127113232266 -0)
(-1.16991373961 -0.319937776895 0)
(-1.16649820467 -0.1969965536 0)
(-1.15915144172 -0.416687528667 -0)
(-1.14142765196 -0.384315212604 -0)
(-1.10892204938 -0.612432446641 0)
(-1.07557988095 -1.02798069446 0)
(-0.938975743733 -0.996087130493 -0)
(-0.853826135813 -3.05758524774 -0)
(-0.223302966011 -1.14099066589 0)
(-0.206900372972 -1.08344996443 0)
(-1.565191071 -0.921981346395 -0)
(0.420540553526 -2.59280000147 -0)
(-3.24196981575 -2.02406835122 0)
(-6.3587801208 -2.53993334329 0)
(2.06085744898 -0.549939762327 -0)
(1.27666214012 -0.601822000109 -0)
(1.16414705287 -0.325149165672 0)
(1.19342298934 -0.429469239432 0)
(1.22044740263 -0.308198077697 -0)
(-1.65463571803 -0.117157732478 0)
(-1.17221964887 -0.101813060989 0)
(-1.17073516197 -0.192264188149 -0)
(-1.16629258494 -0.223669413567 -0)
(-1.16300096975 -0.296192942614 0)
(-1.14860599285 -0.682162728301 0)
(-1.09868644407 -0.57653135768 -0)
(-0.90480622663 -2.33436831261 -0)
(-0.966514174869 -1.41330249406 0)
(3.34100352876 16.6382568271 0)
(-0.106143092411 -1.12821135816 -0)
(0.490881616115 1.93100757057 -0)
(-0.12296544636 -1.28981361928 0)
(2.46409425833 0.445441722057 0)
(1.14254476299 -0.929932874022 0)
(1.6054841459 -0.235060133192 0)
(1.09625593162 -0.077021886641 -0)
(1.11682494209 -0.0176003957768 -0)
(1.1737408806 0.0412395688981 0)
(1.151500836 0.0573111413181 0)
(-2.75263373905 -0.00356920686528 0)
(-1.16171841612 -0.0508630935547 -0)
(-1.18652196617 0.000230747038244 -0)
(-1.16123880396 -0.0967856826381 0)
(-1.19231196346 -0.31788794128 0)
(-1.14745524259 -0.27345054727 -0)
(-1.12702589555 -1.71975691869 -0)
(-1.14545176671 -0.970158498244 0)
(18.0987858764 48.3632213674 0)
(-0.924166531173 -3.08919866765 -0)
(0.474587653026 2.72076281113 -0)
(0.332309845223 1.83051067797 0)
(-0.19850090705 -1.02524053517 -0)
(0.903255792801 -0.385569809428 -0)
(5.77132618373 -1.10586156659 0)
(1.59408553743 0.184482963127 -0)
(1.15744377221 0.161802453507 -0)
(1.16209774142 0.0295685476373 0)
(1.158003905 0.0350947601417 0)
(1.20016581615 -0.117657653341 -0)
(0.00124313252337 1.80706783061e-06 -0)
(-1.13106799521 -0.208292459458 0)
(-1.15800386318 -0.0351428233125 0)
(-1.13359313498 -0.10217418159 -0)
(-1.15744576206 -0.161991701648 -0)
(-1.12151621055 -0.199156725431 0)
(-1.16190333002 -0.748004977057 0)
(-1.26309186539 -0.723429671896 -0)
(-1.12824389441 -3.5698516699 -0)
(-1.38483997893 -2.34662940308 0)
(1536.60141587 8909.74451845 0)
(0.340364753066 3.96599427952 -0)
(1.12816837296 3.56656828258 -0)
(0.961361705862 0.0479049085163 0)
(1.16191578172 0.747268179766 0)
(1.17089633557 0.336323533453 -0)
(1.15744385329 0.161804825453 0)
(1.11316283435 0.197309890551 0)
(1.15800413301 0.0350953106845 -0)
(1.11267545508 0.473229067277 -0)
(0.00125263345647 1.96343493018e-06 0)
(-1.18657503752 0.0875322544531 0)
(-1.15800360143 -0.03514369939 -0)
(-1.16423976172 -0.014851631265 -0)
(-1.15744563484 -0.161994491521 0)
(-1.37437284984 -0.0942353367105 0)
(-1.16190313404 -0.748015652384 -0)
(-0.960368574073 -0.0489090328191 -0)
(-1.128244437 -3.56989348926 0)
(-0.340864462199 -3.97154769328 0)
(1536.51693452 8909.3394671 -0)
(1.38462170506 2.34509992976 -0)
(1.12816783284 3.56660724862 0)
(1.2626924745 0.72268053598 0)
(1.1619159356 0.747277406488 -0)
(1.22250928544 0.516837141195 0)
(1.18147101608 0.346409967555 -0)
(1.15464690543 0.18103145012 -0)
(1.18892437571 0.0364069780043 0)
(1.1656523028 0.0910133974565 0)
(3.07111027861 0.0631079921616 -0)
(-1.15305776284 -0.0520369846805 -0)
(-1.17788943194 -0.0736624075843 -0)
(-1.12575952678 -0.0250225252736 0)
(-1.08224956754 0.0528153849905 0)
(-1.43998689231 0.00606045224206 -0)
(-5.21625865134 1.12504033007 -0)
(-0.903323419158 0.385958043423 0)
(0.197644725354 1.02088455913 0)
(-0.332142161578 -1.83266076361 -0)
(-0.474691453874 -2.72123605177 0)
(0.924201423411 3.08679204998 0)
(-18.2587320526 -48.8253956482 -0)
(1.14534813771 0.969303225483 -0)
(1.12271376865 1.72348299587 0)
(1.13910678844 1.55359053804 -0)
(1.15205590572 0.251107638667 -0)
(1.17126040185 0.465080182423 0)
(1.16262389994 0.141376570798 0)
(1.18138685426 0.190107174826 -0)
(1.78183844199 0.0379989665695 -0)
(-1.22078142623 0.300338969375 0)
(-1.21996497198 0.563986699857 -0)
(-1.17633849469 0.332866798256 -0)
(-1.34735203291 0.791472057541 0)
(-1.5691198032 0.529264435399 0)
(-1.14300562233 0.928800726024 -0)
(-2.48112320535 -0.488043140762 -0)
(0.12220065913 1.28880049186 -0)
(-0.491812499745 -1.93411341273 0)
(0.106117986091 1.12819823806 0)
(-3.35370882046 -16.6930783828 -0)
(0.966387211444 1.41245749299 -0)
(0.904617643855 2.33148531702 0)
(1.09872329021 0.576466076518 0)
(1.08108258894 0.810805299677 -0)
(1.12473359656 0.390340741721 0)
(1.1678977729 0.578679699113 0)
(1.15783537311 0.169420369819 -0)
(1.18213640152 0.424138447194 -0)
(1.23967787606 0.0864323734348 0)
(-1.12721791448 0.371297076896 0)
(-1.18979708077 0.958105844155 0)
(-1.10521720908 0.374884615719 -0)
(-1.08265739715 2.49729212999 -0)
(-1.07876238306 0.0330331803901 0)
(-3.6637502144 -0.565492692564 -0)
(3.32066177698 1.88804689613 -0)
(-0.425683693003 2.53464591491 0)
(1.5606911267 0.9227404293 0)
(0.206878974108 1.08345146344 -0)
(0.223640700318 1.14102339165 -0)
(0.853392644569 3.05266144497 0)
(0.938991399582 0.995935402818 0)
(1.07495768028 1.02674518711 -0)
(0.992120667284 0.989520858661 0)
(1.08441994577 0.581177963348 0)
(1.14693772632 0.56652611027 -0)
(1.11838137189 0.45686911835 -0)
(1.17678325481 0.373813875379 0)
(1.2086875132 0.274461644511 0)
(-1.16851890899 -0.148336906782 0)
(-1.42377480091 -2.89820768592 -0)
(-1.14188788051 -0.359921226997 -0)
(-1.12266105464 -0.527304336561 0)
(10.4493087008 4.6930813705 0)
(-1.30506249184 -0.597377893246 -0)
(-1.0970259764 1.63169783284 -0)
(-1.12843150886 -0.819977680258 0)
(0.547984304636 0.423939443891 -0)
(0.0222344777531 1.16191079023 -0)
(0.148786760999 1.13022646257 0)
(0.623448643777 1.16092527913 0)
(0.919582512488 1.42120781125 -0)
(0.957927869379 0.905095226061 -0)
(0.848426772301 1.01068729134 0)
(1.07910099749 0.587951028803 -0)
(1.05036961276 0.793092709864 -0)
(1.12900242863 0.405099397226 0)
(1.10812915173 0.615321779227 0)
(1.23040278586 0.37693796391 -0)
(-0.822671686733 -0.040152509032 -0)
(-2.0670324736 -3.72301058932 -0)
(-1.40137512576 -0.436268424923 0)
(0.2481117183 0.303021654383 0)
(-1.7090122239 -1.15431901687 -0)
(-1.03117342542 0.565245154386 0)
(0.0875537261972 0.534454718779 0)
(-3.05712663839 2.08146918286 -0)
(4.250761492 0.615299770307 -0)
(0.0377160029191 1.23085071218 0)
(0.211401842743 1.18514277478 0)
(0.190098435807 1.13352998901 -0)
(0.727451778225 1.07388580246 -0)
(0.923106354738 1.01249355269 0)
(0.808916410805 1.02936340318 -0)
(0.971043170035 0.825592055751 -0)
(1.06080989917 0.790016159493 0)
(1.0299355244 0.709196051371 0)
(1.12810851788 0.584899888536 -0)
(1.16730237114 0.581915861738 -0)
(-0.11492085008 0.155702059109 -0)
(0.162012049841 -0.0838472377129 0)
(-1.51942055656 2.69693713776 0)
(3.10593213431 1.26677937484 -0)
(-0.486239130258 0.676777337035 -0)
(3.73613816379 0.886518789474 -0)
(-1.01934397241 0.663142934576 0)
(1.11030946876 -0.252646665905 -0)
(-41.1378333478 4.2021479015 -0)
(0.004814694585 1.15744451694 0)
(0.0359563947342 1.16357328247 -0)
(0.500949677466 1.17602047037 -0)
(0.602631034597 1.1680081719 0)
(0.779103938866 1.02073145715 0)
(0.684257177512 1.07980386914 -0)
(0.96597200948 0.86269969787 0)
(0.9154073917 0.905589057962 0)
(1.03885718746 0.709394013256 -0)
(1.01055079286 0.762873381337 -0)
(1.09729727237 0.598991696111 0)
(1.5185275124 -0.464794250287 0)
(-4.91271308765 -0.469830629909 -0)
(-0.0583197922403 0.224543796051 -0)
(-1.12736972929 0.537920625609 0)
(-0.114800470174 0.394237176985 -0)
(-1.00815380092 0.703541980375 -0)
(-2.10168872167 -1.29083988151 0)
(-2.07946730534 1.02198789934 0)
(-5.56088079753 1.56591638302 -0)
(0.00738468756379 1.18114781755 -0)
(0.18883064799 1.17879467636 -0)
(0.174454705619 1.18086660076 0)
(0.584443070413 1.11464611152 0)
(0.715963605728 1.08183580435 -0)
(0.655128953395 1.10071311841 0)
(0.848259998036 0.958485329774 0)
(0.912916624319 0.91531463175 -0)
(0.925567321599 0.857708307429 -0)
(1.02018739807 0.758312141902 0)
(0.261558585643 0.316349820069 0)
(-1.97098797139 -0.156820990329 0)
(-2.38109982384 -1.43376059439 -0)
(-0.897019488534 0.730941798822 -0)
(-0.675936288517 0.260486966462 0)
(-0.928637187564 0.853673784973 0)
(-4.62168369178 -0.727566944527 -0)
(-0.946324824661 0.983809975763 -0)
(-2.0866475662 0.774656094026 0)
(-3.60103443733 1.57773337051 0)
(0.00104437319546 1.15800379615 -0)
(0.013371011646 1.15929493906 0)
(0.411496502464 1.17457794605 0)
(0.487318487735 1.18377030048 -0)
(0.645414177783 1.07917712596 -0)
(0.578656610107 1.11150190291 0)
(0.822486119745 0.994394469128 -0)
(0.801564243616 0.979313642386 -0)
(0.923037206974 0.872650814355 0)
(0.915200161413 0.870508066555 0)
(1.04488450094 0.737044949688 -0)
(-0.388072518709 0.233527051855 -0)
(-1.13213838626 0.620346232347 0)
(-1.18750468035 -0.505626433593 0)
(-0.959727753009 0.865534600599 -0)
(8.41044159883 0.685875770212 -0)
(-0.817555780444 0.998805403122 0)
(-1.02067805621 0.896989387443 -0)
(-0.746620502326 1.10149694107 -0)
(-1.81332229532 1.35554679196 0)
(0.00147233759348 1.18115292781 0)
(0.172210287511 1.17787911095 0)
(0.156179090954 1.17510105258 -0)
(0.487507626209 1.1358439657 -0)
(0.574068172124 1.12001180194 0)
(0.545787881797 1.13737212443 -0)
(0.739442927547 1.03132487491 -0)
(0.786139631253 0.99536904934 0)
(0.825820362733 0.947988334986 0)
(0.914455607937 0.879232569088 -0)
(1.17880912309 1.13242709905 -0)
(-1.08636774098 1.14769322899 -0)
(-0.966211744104 -0.212914753216 0)
(-1.07195921048 0.793805931423 0)
(-0.211053240358 0.276920859927 -0)
(-0.77570118256 1.03076284291 -0)
(-0.721608744272 0.881378408018 0)
(-0.495822302928 1.11179268052 0)
(-0.871145254408 1.01733206716 -0)
(-1.22388598198 1.3182320097 -0)
(0.000226568226516 1.15793321597 0)
(0.00944424958816 1.16007056634 -0)
(0.350599495766 1.17451671259 -0)
(0.400790704231 1.18012147337 0)
(0.549659330321 1.11101348983 0)
(0.51063532429 1.12808441772 -0)
(0.700709790886 1.06221208287 0)
(0.708473462513 1.02866560919 0)
(0.812002037845 0.966567318239 -0)
(0.82512094541 0.94820073461 -0)
(31.5963685935 -65.3935453168 -0)
(-1.16137141172 -0.196732930058 -0)
(-0.728958587479 0.941624878587 -0)
(0.125034366112 0.396019329836 -0)
(-0.684122844131 0.934488527725 0)
(-1.2610464503 0.859212528989 -0)
(-0.559272319617 1.12327613217 -0)
(-0.671726851491 1.02856300326 0)
(-0.369618823399 1.13017061011 0)
(-0.971768492131 1.26486681247 -0)
(0.000297278167395 1.17582463771 -0)
(0.159095687084 1.17639944976 -0)
(0.144498104045 1.17491514273 0)
(0.420499496545 1.147787927 0)
(0.478024671049 1.13957263129 -0)
(0.471254145741 1.15635755915 0)
(0.651501088089 1.07247272825 0)
(0.684049559773 1.0467938494 -0)
(0.739668748147 1.00606542402 -0)
(0.816365836669 0.959318427639 0)
(-0.0633515233131 1.13707201856 -0)
(-0.477253227299 1.12153251405 0)
(-1.19654152528 0.47068218209 -0)
(-0.729612998391 1.00932871233 -0)
(3.80760852987 1.1680277766 0)
(-0.615938806705 1.08603243365 0)
(-0.716669560945 1.03991001611 -0)
(-0.320240658555 1.15184624382 -0)
(-0.560675270645 1.08019499034 0)
(-0.69115073235 1.26328141347 0)
(4.91730450293e-05 1.15794207193 -0)
(0.00950717890492 1.16017371579 0)
(0.307153002116 1.17400586161 0)
(0.342230134327 1.17875885042 -0)
(0.48063199909 1.12946791835 -0)
(0.465190318557 1.13767273821 0)
(0.606985006978 1.09874212506 -0)
(0.634255575651 1.06204260469 -0)
(0.717987385453 1.02481652718 0)
(0.749086619845 0.997579174572 0)
(0.757157881886 0.945390874942 -0)
(-0.0126481716072 1.14569083839 -0)
(-0.133395000999 1.14937606462 0)
(-1.04056012016 0.91230311198 -0)
(-0.67534316913 1.09283650236 -0)
(0.207405958451 1.23914963888 -0)
(-0.420198446178 1.15682580811 0)
(-0.517694712514 1.09637701592 -0)
(-0.259579070381 1.14903046903 -0)
(-0.6612361586 1.23314382154 0)
(6.11753908128e-05 1.17310205926 0)
(0.148183263114 1.17516984979 0)
(0.135848627359 1.17397390488 -0)
(0.372253261886 1.15486645396 -0)
(0.412201595605 1.1504952695 0)
(0.396972815341 1.15802376293 -0)
(0.537783885235 1.10758753667 -0)
(0.557186141086 1.09171088933 0)
(0.620556749888 1.06509756604 0)
(0.684265487454 1.03578035116 -0)
(0.642451661869 1.00156813065 -0)
(-0.788066531034 0.983909633148 -0)
(0.138715876788 1.11430178356 0)
(-0.633655734385 1.0741411923 0)
(-0.597907706295 1.10199390653 -0)
(-0.439384388377 1.13421798202 -0)
(-0.487619154435 1.11538106817 0)
(-0.222458666458 1.14802438962 0)
(-0.394256293636 1.12568508896 -0)
(-0.420723704386 1.17143828474 -0)
(1.07033438381e-05 1.15794174449 0)
(0.00867080163503 1.15604102295 -0)
(0.245576997844 1.16733538386 -0)
(0.268658925101 1.16786071614 0)
(0.387454667093 1.14352831879 0)
)
;

boundaryField
{
    top
    {
        type            fixedValue;
        value           uniform (0.1 0 0);
    }
    bottom
    {
        type            fixedValue;
        value           uniform (0 0 0);
    }
    left
    {
        type            cyclic;
    }
    right
    {
        type            cyclic;
    }
    frontAndBack
    {
        type            empty;
    }
}


// ************************************************************************* //
